  8.6068585e-06   6.4001874e-06
  2.8798233e-06   3.3461765e-07
  3.4705058e-06   8.2207600e-07
  2.1531716e-05   4.5751909e-11
  4.8275786e-05   1.2710880e-06
 -8.7056549e-05   9.6706012e-09
 -6.6500274e-06   2.6487464e-06
  3.0647698e-05   1.6056555e-08
 -1.5515488e-05   2.1211892e-09
 -1.9409633e-06   1.7680400e-06
  4.2589421e-05   2.4520423e-06
 -5.2787418e-05   1.0571088e-09
  3.8882317e-05   3.3607463e-07
 -3.6150483e-05   2.8514441e-07
 -1.9589615e-05   8.4495300e-10
 -1.6433383e-05   1.8043899e-06
 -2.9231558e-05   1.5408422e-07
  9.8321671e-06   4.5894060e-07
  1.6911536e-05   9.2254687e-08
 -2.9360686e-05   1.9947766e-09
 -8.1937715e-06   8.4691576e-10
  1.2754479e-05   1.4845666e-07
 -3.1160544e-05   5.5748473e-10
 -1.0281262e-05   2.3775763e-06
 -3.7742923e-06   1.9437020e-07
 -3.2226959e-05   4.0046137e-11
  1.9559073e-05   2.0903240e-06
  8.0635600e-06   6.3660126e-09
 -2.0438043e-05   1.1475696e-06
  2.1947321e-06   1.6588342e-07
 -9.8015298e-06   8.8642921e-08
  3.8980055e-05   5.9149070e-06
  2.8162108e-06   4.7991819e-08
  7.4063023e-06   1.2586323e-06
 -1.7502825e-05   2.0528203e-08
  3.5433823e-05   2.4113665e-13
 -5.2145857e-05   5.1572215e-06
  1.8229259e-05   1.1511934e-06
 -4.9409737e-06   1.1380327e-07
  8.4841264e-07   2.5508550e-08
  1.1026219e-05   9.8850670e-09
  2.2159331e-06   1.8690420e-09
 -2.9957548e-01   3.8456389e-09
  2.5878203e-01   1.1485686e-15
 -3.5016432e-02   3.1388606e-10
 -3.0855575e-01   7.2431235e-11
 -5.7943976e-01   2.8767674e-12
 -6.6730320e-02   1.9854302e-11
  1.2552668e-01   3.1139871e-12
  1.9844989e-01   1.3092798e-10
  2.5227258e-02   5.1340338e-10
 -5.9675341e-03   1.0555475e-10
  5.0211733e-04   3.1617156e-10
 -7.2222105e-03   2.6071039e-09
 -2.7283153e-03   3.2199184e-11
  1.7329002e-03   7.0751560e-10
  2.4163795e-01   9.9469402e-09
  3.2494180e-02   5.3778360e-11
  1.3992416e-02   3.3207163e-11
 -1.3929819e-04   3.6552392e-10
 -1.7075630e-01   5.6342713e-09
 -2.6210904e-02   2.6290514e-10
  8.0082966e-03   3.6146172e-10
  2.4116573e-01   1.1585209e-09
  1.1668409e-03   2.7838319e-14
  1.1415493e-02   2.9522703e-13
 -1.1709405e-02   6.9106942e-11
 -1.2632494e-01   1.6598213e-09
 -6.2941913e-03   1.7293788e-09
  5.3864447e-03   8.3443759e-11
  2.4346478e-01   3.9399328e-10
  2.6651291e-02   1.2177219e-09
  1.6225895e-04   3.7770963e-12
 -3.6817178e-04   4.1243713e-11
 -5.6843802e-02   1.2819007e-10
 -2.6950574e-02   3.9372728e-12
 -4.9161077e-03   3.3349479e-10
  2.8339027e-06   1.0373666e-08
  3.5027589e-04   5.0800159e-11
 -2.8703669e-05   3.1023505e-13
  6.8321307e-05   3.3115908e-09
 -2.5780702e-03   2.0274248e-08
 -4.8944466e-06   6.4226451e-11
  9.7511690e-03   6.6116512e-09
 -1.4585002e-01   1.4162997e-10
  7.6379694e-02   5.2217936e-10
 -7.2251862e-01   1.5700730e-10
  4.6874014e-01   2.8984445e-12
 -4.4068301e-01   2.5397950e-10
 -1.1094689e+00   6.3684713e-10
 -2.6892209e-01   9.1626662e-10
 -2.7190605e-05   2.4248626e-08
 -6.8362756e-06   1.8543088e-09
  7.7689956e-03   1.2791942e-09
 -1.2340593e-03   2.5563760e-09
 -3.2143167e-01   8.9370522e-10
 -3.8126018e-05   4.4532129e-09
  1.1474269e-02   3.3473583e-08
 -1.2047177e-05   1.2455513e-08
  4.4672863e-05   2.6132903e-09
  9.3895305e-06   2.1078092e-12
 -1.7895197e-02   2.3389701e-10
 -8.5541195e-01   1.7065735e-09
 -1.0517607e-04   3.4756713e-08
 -1.8192593e-07   5.2231339e-09
  1.9618129e-02   7.3329937e-10
 -2.0460688e-05   8.4554153e-10
  1.0880192e-03   5.2433218e-09
  2.4693352e-04   1.5225722e-10
 -1.0559235e+00   1.9580440e-11
  2.6589223e-05   2.2036734e-10
  2.5631633e-01   1.7936302e-09
  1.8227255e-04   7.7240500e-08
 -9.2112932e-06   3.7994195e-11
 -1.5036898e-03   1.5972061e-10
  7.0281974e-05   1.9479350e-11
 -1.9651864e-01   2.1146509e-09
 -7.2206683e-02   2.9682925e-09
  2.8545139e-06   1.5060631e-10
 -7.5539724e-06   6.7813392e-07
 -6.7807989e-05   2.6998963e-08
  5.6053010e-05   1.1585696e-08
 -1.8352810e-05   1.0832491e-06
 -2.7377429e-05   1.0550655e-07
 -2.5812436e-05   4.3773740e-09
  3.7578480e-05   7.4240609e-07
  4.0010742e-05   1.0173755e-14
  1.0905180e-04   4.7901128e-10
 -2.2075132e-01   2.6945646e-10
  1.7314249e-04   1.5329547e-10
 -1.9951826e-02   1.0610329e-10
 -2.4799898e-02   8.7196726e-12
  9.1324626e-03   2.7740441e-09
  4.1381918e-05   1.7591359e-09
 -6.3489442e-06   7.9434457e-08
  8.4347803e-06   2.9320437e-09
 -7.1854061e-05   5.8599272e-09
 -5.2847208e-05   2.5613025e-07
  1.1270861e-04   7.8455227e-13
 -1.8267647e-05   2.0720936e-09
 -6.2330801e-05   1.0544569e-11
  4.4341195e-05   3.5955641e-10
  1.5660695e-05   6.0057112e-11
 -1.0625006e-05   5.1714082e-08
 -1.1707666e-04   3.2221717e-10
 -2.2202353e-06   1.5154455e-07
 -1.2303160e-05   4.5640860e-09
  5.2591971e-05   1.8293655e-08
 -1.2494042e-05   1.1264607e-08
  3.8235132e-05   7.0433215e-10
 -2.3077877e-05   1.4434739e-09
 -9.8386113e-07   1.0147757e-08
  1.3451477e-05   1.3001922e-07
 -1.3788042e-06   3.4481651e-08
  1.7916896e-05   2.1514889e-08
  3.6464073e-05   7.6620630e-09
  1.8205363e-04   2.6023433e-10
  1.6215301e-04   2.5044884e-09
 -3.8939921e-05   1.7346888e-08
 -8.3657878e-06   3.7545297e-10
 -8.9816522e-06   8.9732173e-11
  4.1769552e-05   4.9769724e-12
 -2.2456443e-06   3.0760597e-07
 -2.0645093e-05   4.4323463e-07
  6.1210098e-06   8.6579668e-08
 -3.4873421e-05   9.8438318e-07
 -1.1377289e-05   3.9974211e-08
 -7.1428485e-06   2.8534759e-08
  9.7877383e-01   5.1627042e-10
  8.6565816e-01   4.9362481e-10
  1.2794081e-03   8.6152206e-13
  9.6531808e-01   4.8434954e-11
 -3.4329649e-02   3.9491331e-12
 -2.9287964e-01   1.6002923e-10
  1.0838072e+00   1.0805428e-10
 -9.9537765e-06   3.6881220e-09
 -1.7376784e-05   2.5653935e-10
 -5.8117279e-05   3.3725647e-09
 -1.1119383e-04   1.0888479e-10
 -2.1239832e-05   4.8076241e-09
 -2.3924351e-05   9.2037329e-09
  1.6706533e-04   9.7393232e-11
 -1.1292062e-05   5.0390582e-08
  5.4851418e-05   3.2726430e-10
  3.7228491e-02   1.1490940e-09
 -4.0211482e-04   1.6835770e-08
 -9.5425900e-03   1.8809565e-09
  1.0561322e-05   5.5131750e-11
  8.2001305e-04   1.5395734e-12
 -2.2861417e-05   1.1357489e-09
 -3.1296588e-06   6.8702439e-09
 -5.1863076e-06   1.1160680e-10
 -4.8394955e-04   1.3123736e-08
 -1.2960661e-02   3.2090539e-10
  9.5809983e-06   1.9648166e-10
 -1.2746216e-05   8.7180419e-12
  1.0787436e-07   8.0749283e-09
 -4.3797841e-05   3.8246585e-12
 -5.3076718e-02   8.7913449e-13
 -2.9110714e-04   7.4065698e-11
 -5.0362313e-01   3.2811512e-10
 -1.6077252e-05   6.0557787e-10
 -4.7068804e-04   1.1882955e-08
  1.2705874e-06   1.7893665e-07
 -2.5961137e-05   1.1181366e-10
 -2.5190600e-05   1.8029046e-10
 -3.1241991e-06   3.3948844e-08
 -5.8553938e-05   1.6865638e-08
  2.7458062e-05   7.7362799e-08
  7.0936163e-05   1.3105299e-09
  1.2391564e-01   1.7425143e-10
 -2.6434770e-06   2.4136157e-10
  1.6001580e-02   2.1623448e-11
  2.1777305e-01   2.7322202e-15
  9.7545519e-02   3.3402703e-10
  7.9526410e-02   5.9495360e-09
 -3.4466720e-01   5.9125357e-11
 -1.0002251e-05   1.2882361e-08
  4.0280643e-06   1.1346169e-10
  8.9472414e-06   2.0894357e-09
  1.1278036e-05   1.2237770e-09
 -4.8028182e-06   4.2783778e-08
 -5.5047872e-06   5.5062475e-11
 -6.2743464e-05   1.0658220e-07
 -4.2404379e-05   3.3858081e-12
 -4.1382194e-05   1.8776698e-08
  4.3117557e-06   1.5393235e-10
  6.1270330e-05   3.9600839e-10
  6.3000698e-06   1.7777201e-07
  1.0662222e-06   2.7793110e-08
 -5.3469128e-05   2.7327598e-08
  1.1205277e-05   5.9572249e-09
 -1.1551743e-05   1.2130058e-09
  4.7254485e-05   5.7821054e-10
 -8.4626021e-07   1.3676613e-09
 -5.3228928e-06   2.2530085e-12
 -6.5400295e-06   3.3884795e-08
  2.9086763e-05   1.3951990e-08
  1.7069531e-06   2.4103647e-07
  2.7919025e-06   4.2860533e-09
 -1.7594555e-06   3.3002840e-11
 -1.0515962e-05   4.4614010e-09
 -5.5397591e-06   1.4124545e-09
  1.0719345e-05   6.6054801e-11
  1.9440635e-05   6.9198611e-09
  9.5433525e-06   4.6879483e-09
 -5.6224671e-06   4.3581423e-08
  9.7667328e-07   3.9970235e-10
  7.8357607e-06   2.0350754e-09
  1.6208107e-05   2.4306201e-08
 -2.2288823e-05   5.7361427e-10
  5.6447880e-05   1.3428610e-08
 -1.0957727e+00   1.3157941e-09
 -1.2265711e+00   1.1494018e-12
  7.8477931e-01   1.7488998e-11
 -1.4774795e+00   1.3324242e-08
 -1.2505269e-01   2.3365072e-09
 -1.2559183e-01   4.0278576e-11
  1.8913373e-01   1.1898843e-09
 -7.9600450e-06   1.7811095e-08
  5.1020204e-05   1.2106537e-07
  6.5346435e-04   5.2236278e-09
  3.2622791e-07   2.2912035e-11
 -9.2901864e-06   2.1333575e-10
 -5.9819598e-07   5.6091687e-09
 -7.2073432e-05   3.1504159e-09
 -1.0333857e-05   3.1980489e-09
 -8.4302237e-06   2.5375646e-09
  2.2947281e-06   1.1294718e-09
 -5.0608058e-05   2.3095461e-09
  1.3165862e-05   1.4910526e-09
 -5.3181634e-06   7.0712836e-09
 -6.9140248e-07   4.0686596e-10
 -1.3712842e-06   5.3354248e-12
  1.8576409e-05   6.2287939e-09
 -1.0862215e-01   3.9879464e-09
 -1.6864514e-06   5.4710934e-09
  3.2184888e-02   2.8403884e-09
 -1.5925530e-04   5.7690023e-08
 -2.2530079e-05   4.7009296e-10
  1.2042823e-05   2.6495840e-07
 -1.8568553e-06   1.7912127e-09
 -4.1145734e-02   2.1661462e-08
 -6.7730820e-05   2.1206625e-09
  3.9511687e-01   1.6189551e-08
  6.8579907e-06   3.1639598e-08
  1.9843948e-05   9.2514973e-08
  1.0372528e-05   1.3690045e-07
  1.8161996e-05   9.6267854e-08
  7.1937129e-06   4.5922698e-07
 -2.4384884e-05   2.2213346e-10
 -9.5427986e-06   5.2642044e-08
 -2.3026932e-05   2.3930312e-07
 -5.0211713e-07   1.3215946e-08
  8.9715433e-01   1.4042800e-09
 -1.7735972e-01   1.8101558e-10
  1.5874212e+00   3.3885728e-09
  1.9370654e-01   1.0995480e-11
  1.7509661e+00   8.1577118e-09
  7.8327841e-01   1.7640092e-10
  2.7895826e-01   3.1428729e-09
  4.7334629e-06   1.2908832e-08
  7.7360501e-06   1.1209473e-09
 -2.6268524e-03   9.5886306e-11
  1.1546365e-02   5.8121780e-10
  6.9469833e-01   1.0972236e-11
  6.2246465e-05   1.7092690e-08
 -9.3494384e-03   1.1059224e-09
 -9.8957593e-05   8.9964320e-09
 -3.9828412e-02   1.3341930e-09
 -8.4558325e-03   5.9091776e-10
  3.2449003e-02   8.3034237e-09
  1.2569846e+00   1.7043336e-09
 -2.6039455e-05   2.0374263e-11
 -8.7892375e-05   6.4395751e-09
 -1.1872237e-01   1.3566921e-09
  2.4634454e-01   3.2387676e-10
  1.4912768e-04   1.4269913e-11
  5.2460201e-02   1.1736152e-10
  1.8130510e+00   2.1655437e-09
  7.4086238e-05   8.7957301e-11
 -2.6173145e-01   2.1787301e-08
 -6.9504455e-02   1.4587454e-08
  1.0930386e-05   1.9090872e-10
  2.3985500e-02   4.4970067e-10
  8.2056308e-03   8.3490759e-10
  5.5079702e-02   6.4695560e-09
  1.1041846e-02   1.0102397e-10
  9.5128119e-03   8.4717004e-11
 -3.3654658e-05   2.6393870e-10
 -7.9411575e-06   1.3521326e-07
  1.3926900e-05   1.5787708e-07
 -4.5792217e-07   1.5251896e-08
  3.2710890e-05   3.1276852e-09
  2.0033934e-07   2.8407494e-09
  4.1763393e-05   2.0671493e-07
  1.8981840e-01   2.2371285e-09
  5.2017766e-01   2.9562904e-12
  4.5283802e-02   3.7052147e-10
 -1.6237260e+00   2.0160382e-10
 -8.5290469e-02   6.7803714e-11
 -3.2296288e-01   3.5642794e-11
  3.7120792e-01   3.5669089e-14
  1.3186923e-05   1.0568785e-08
 -3.6278207e-02   1.6692661e-08
  9.8894336e-05   3.7399323e-10
  3.3419874e-05   2.8696975e-10
  5.3897534e-02   2.4897655e-09
  1.5978883e-04   7.5073118e-08
 -2.2579963e-05   1.3822735e-08
 -5.1351424e-07   3.4570120e-09
  3.4282089e-04   1.8316165e-09
 -1.7387261e-05   3.6426520e-10
  1.4934996e-04   5.5870664e-09
 -1.5323216e-05   2.4444546e-07
 -1.7015422e-05   1.9041426e-08
 -3.0081588e-05   7.1031523e-09
 -1.1479013e-05   9.8528318e-08
  1.7116452e-05   2.6198439e-08
 -1.0305148e-04   6.5150052e-11
  1.6040034e-05   2.9845371e-08
 -3.0252677e-06   6.9651862e-09
  1.1438727e-06   1.5825523e-11
  5.8003676e-05   1.1073245e-08
  8.2213752e-05   1.4769350e-08
  1.6539232e-04   2.4470576e-10
 -1.0113592e-02   3.3225733e-09
 -4.5770430e-05   9.7171231e-09
  1.5368370e-05   1.3432870e-10
 -1.6096823e-05   1.5399850e-08
  9.8497461e-05   1.0547614e-08
 -3.1381180e-06   8.4620649e-07
 -5.8317248e-05   7.7125925e-08
  9.3602303e-06   1.2113649e-07
 -3.8979178e-05   1.0996104e-06
  1.0927064e-05   1.1683583e-07
  7.2254697e-06   4.1159765e-08
 -1.5154183e-05   9.9931434e-08
 -1.3139790e-01   4.3189957e-12
  1.2225339e+00   1.4640945e-09
  5.6751822e-05   4.7173588e-11
  5.2937222e-01   3.9981018e-09
  3.4648186e-01   7.4680023e-10
  1.8545994e-01   1.1148495e-09
 -6.1904579e-01   6.0725487e-09
  3.1928059e-05   1.2891846e-08
 -8.0082507e-05   4.8466225e-10
  1.4290422e-03   5.0512879e-12
 -1.0780376e-07   1.4483119e-09
 -3.4729739e-05   4.4973069e-07
  2.1486892e-05   2.7639231e-08
  8.0983918e-06   6.8179893e-09
  2.5702508e-05   5.5378726e-11
  1.3826005e-06   1.9942478e-08
  1.6891514e-04   2.9949013e-10
 -1.0720416e-05   1.4722095e-08
  5.4643579e-06   8.7848223e-10
 -6.7138495e-07   3.3666514e-09
 -1.5279198e-04   6.2172077e-08
 -1.1997026e-04   5.2989668e-10
  2.8380928e-05   3.4246056e-10
  5.0923906e-02   7.6369009e-09
  2.1448186e-05   3.2606216e-09
  3.7388920e-04   4.0148307e-10
  8.0865895e-05   2.5804550e-10
 -2.7167091e-06   1.0527113e-08
  5.7904632e-05   1.6660846e-07
 -1.1522984e-05   2.6389040e-09
  7.4660365e-06   5.3792909e-10
 -4.6695612e-05   7.0093882e-09
  1.6585138e-02   1.9944240e-08
  3.1398082e-05   2.9849083e-09
 -1.3470657e-06   8.2450647e-08
 -7.1824024e-06   2.1005108e-07
  7.8891193e-05   8.5646654e-09
  3.9642098e-05   4.2633598e-08
  7.2846719e-06   4.3925500e-08
  9.4844709e-06   7.5098956e-07
  4.2543265e-06   9.6243113e-08
  1.3064301e-05   2.6843989e-09
 -9.2886003e-05   5.8883863e-11
  1.2255402e-03   1.0449694e-10
 -1.3002597e-02   1.8494388e-13
 -4.8951656e-02   7.3686776e-13
 -1.5714671e-01   2.7589604e-09
 -7.1474329e-02   2.9683672e-10
  4.6585269e-02   1.2996139e-09
 -6.8708596e-06   4.2906354e-09
 -6.8057702e-06   2.5934310e-09
  9.3233946e-05   1.0717281e-10
  1.6182517e-05   5.7286420e-09
  7.2140037e-06   4.8714712e-09
  9.1940874e-06   1.7097894e-07
 -1.2875982e-05   3.4194739e-10
  2.1548502e-05   4.6458553e-08
 -2.1818412e-05   4.0032790e-09
 -2.5765108e-05   2.0841142e-09
 -3.2435459e-05   5.1746976e-09
  9.9850886e-06   2.5385709e-09
  2.9666853e-05   1.4739578e-12
 -2.7773745e-05   5.9377257e-08
 -2.7243139e-05   2.2140140e-08
 -3.1308919e-06   1.1156385e-08
  1.5187476e-06   1.0961388e-09
  2.7031125e-05   1.3335763e-08
 -3.2467925e-04   7.5102635e-09
  8.4222738e-06   1.5709251e-10
  8.7918052e-06   3.7361293e-08
  7.6763527e-06   1.5014807e-07
  1.7472365e-05   7.3159356e-10
 -3.0044356e-04   5.8620303e-11
  1.3170287e-06   6.6353284e-10
 -1.7279943e-05   2.3758029e-10
  4.1461732e-05   8.1884949e-10
 -1.4597605e-05   4.5415862e-09
  9.8295786e-06   8.1233225e-09
 -6.2321327e-05   9.5870405e-08
  1.4980388e-05   3.3051695e-08
 -2.9256698e-05   8.5637885e-07
 -1.4688123e-05   1.4964545e-08
  8.3522009e-06   6.0079770e-07
 -2.3901450e-05   6.1929079e-08
  1.1525210e+00   7.1876094e-10
 -1.2403289e+00   2.4531530e-09
 -5.3961897e-01   3.5920952e-10
 -3.8489079e-01   2.2159542e-12
 -1.8549649e-02   1.1185146e-11
 -4.4822621e-01   4.6539910e-09
  1.6374502e-01   9.8648346e-12
 -9.6073554e-06   3.1818708e-08
  1.0887179e-05   5.6915606e-08
 -4.0179424e-02   1.6310162e-10
  4.6946348e-06   3.6243900e-08
  2.2425620e-06   4.5998951e-09
  7.6092629e-06   2.7740941e-07
 -3.7422640e-05   1.0176025e-07
 -2.9841836e-05   3.2437364e-07
 -2.2562857e-05   3.1945799e-08
  3.1627344e-06   1.8692523e-09
 -4.1346248e-05   1.3827410e-09
 -8.8624620e-06   1.2304112e-07
  1.6244894e-06   3.1366457e-07
  2.6494106e-05   1.2384539e-09
  6.2890984e-05   4.0208277e-09
 -7.7747653e-04   7.6133161e-10
 -4.3037441e-02   1.8351801e-10
  1.9637077e-05   3.0708145e-09
 -7.6211891e-03   9.0263290e-09
 -4.0079794e-05   5.5662608e-09
 -1.8265993e-05   3.4740297e-11
  2.6986415e-06   3.7224225e-07
 -3.7814167e-05   7.4202660e-08
  2.9591536e-05   1.3227562e-10
  8.8977955e-05   1.3064610e-08
 -1.6636313e-01   1.3408247e-09
  2.3387653e-05   9.7589603e-10
 -1.7895652e-05   1.1488758e-09
 -1.7073184e-04   1.8824942e-09
  1.2630741e-05   2.8386864e-08
 -3.2452357e-05   2.0932343e-07
 -2.6352920e-05   1.9042792e-10
  3.7863529e-06   5.8298548e-07
 -9.5074021e-05   6.8094574e-10
  1.5102833e-05   3.7634931e-10
 -1.5135339e-01   4.2610360e-10
 -6.3088542e-06   3.7499776e-10
 -1.1630962e-04   1.3528470e-10
 -3.0771618e-05   2.0202848e-09
  6.6467444e-05   5.3195794e-13
 -2.1401145e-04   2.4420446e-09
  1.5504242e-05   9.0344107e-11
  7.5847864e-05   7.4663298e-09
  9.9904018e-06   3.7983776e-09
  2.5654275e-05   2.4700910e-09
  1.2145540e-04   8.3169951e-08
 -2.5006721e-05   1.5052645e-08
 -1.4139916e-05   1.7051118e-08
  1.2343920e-05   1.4900216e-07
 -2.9331611e-06   9.1307292e-08
  2.3968987e-06   8.3706269e-08
  1.9161037e-06   1.6575068e-08
 -3.2636985e-05   3.1867182e-07
  1.0775135e-05   2.4631078e-07
  7.5818757e-06   1.8858225e-10
  1.0261633e-05   1.5462594e-12
 -1.2794042e-05   9.2657632e-10
 -1.7991513e-06   7.5616079e-08
  4.7968038e-06   1.2226147e-07
  5.2751649e-05   2.9639000e-07
  1.0321154e-05   2.0835782e-09
 -4.7977851e-06   5.6782517e-07
  8.7699118e-06   1.0442089e-09
  2.5788411e-05   4.3385798e-10
 -1.3913085e-05   1.8805089e-07
 -5.6897326e-05   1.4838157e-09
  4.3645025e-05   2.5210248e-10
  3.4854027e-05   7.6373983e-09
 -2.4740355e-05   3.0703216e-08
 -9.3198396e-06   4.1576729e-07
  7.5626863e-06   5.7126543e-09
  1.2474194e-06   1.3804410e-08
 -2.5735596e-07   3.4519851e-10
  2.9815666e-05   6.4612209e-09
  9.9116505e-06   8.5056421e-08
 -2.6546370e-05   1.9938216e-07
 -4.1363523e-06   3.1836681e-08
  1.9999801e-01   3.1655606e-10
  4.7791384e-02   2.9467581e-10
 -1.2595280e-01   1.6147845e-11
 -3.4523669e-05   1.6152246e-12
 -1.6590945e-01   8.9683339e-10
 -6.6223409e-05   6.6452633e-12
  5.7757474e-02   9.2670629e-14
 -8.0590798e-06   3.8805399e-09
  2.5489658e-06   2.0647554e-10
 -8.1687103e-06   3.7346432e-12
 -2.1445539e-06   2.6543458e-11
  1.2597901e-05   1.2316883e-09
 -5.0994063e-06   1.0120913e-14
 -8.3993900e-06   4.6165507e-08
  8.7942108e-06   1.5215140e-10
  8.4458006e-06   3.8586394e-11
 -3.4130444e-05   1.7855218e-08
 -2.8647080e-06   6.5613563e-08
 -4.6255846e-05   1.2256564e-14
  1.4047415e-04   1.8973645e-09
  2.3281076e-05   1.9389175e-09
 -6.0497632e-06   9.8209785e-10
 -1.3957944e-05   1.4190155e-09
  5.9695583e-05   3.2555053e-10
 -1.4084736e-04   1.2984819e-08
  3.6967157e-07   2.2808613e-09
  4.0094415e-06   4.5763151e-08
  1.9106932e-05   1.8434054e-08
 -2.1669422e-05   2.8146149e-11
  4.2059659e-05   8.8972892e-11
 -1.8992554e-05   3.8164180e-10
  4.5007150e-06   8.3732434e-09
 -3.1426061e-05   3.0106113e-09
 -2.2637929e-05   2.7165686e-07
 -7.2863209e-06   5.3266040e-09
  2.3650269e-05   3.6153936e-06
 -5.3542162e-06   2.5386946e-09
  5.7970205e-06   4.5767674e-09
  1.3309645e-05   3.3050205e-07
 -1.7314454e-05   6.6166911e-07
  4.7705435e-05   1.4823976e-09
 -3.3917715e-06   3.8966667e-11
  4.1479848e-02   8.2251046e-11
  2.0506649e-04   2.0394131e-09
 -9.2968129e-04   3.9713274e-11
 -1.2362337e-01   2.6628044e-12
 -3.4878869e-02   5.9254997e-11
 -1.2581907e-05   6.9677224e-12
  9.6840829e-02   1.1648400e-12
 -4.4451674e-05   3.7695750e-07
  1.2505227e-05   9.3546099e-08
 -4.6748555e-05   1.4418445e-09
 -8.0460832e-06   1.3919828e-07
 -2.0935804e-04   2.4822699e-10
 -2.3992450e-05   2.5459752e-07
  1.1852230e-05   5.4176169e-10
  1.0697563e-05   4.3300173e-07
 -3.9730594e-06   6.7787540e-09
 -2.1486758e-05   1.2404097e-09
  2.2448821e-05   9.2805976e-08
  1.6648015e-05   8.3125357e-10
  9.0675940e-07   1.0160316e-09
  5.3038489e-06   7.1609128e-09
  2.8352570e-06   3.1928558e-08
  7.8041354e-05   2.3243089e-08
  1.8888515e-05   6.8302486e-10
  1.4667165e-05   1.7094944e-09
 -8.7748076e-06   1.7908307e-10
  1.1701040e-06   6.1638048e-08
  5.8377322e-05   1.0339615e-11
  2.3189405e-06   7.8125268e-08
 -1.4074162e-05   7.9185426e-08
 -2.4008488e-05   4.0348500e-10
 -1.0257836e-04   2.9300082e-09
  8.6401333e-06   1.6374804e-08
 -1.1547505e-05   5.7521612e-07
  9.8076729e-05   8.8662382e-08
  2.4659374e-05   2.8544957e-07
  6.3728116e-06   4.2817825e-09
 -2.0840456e-05   4.2187747e-07
  1.9530364e-06   7.3857407e-08
  3.6529536e-06   2.2568391e-07
 -1.5237089e-04   6.3280157e-07
  4.9535987e-07   3.0791367e-10
  3.6204085e-05   1.8185418e-11
 -9.2852123e-02   5.7185640e-10
  5.7557933e-02   2.8718281e-10
  1.1862295e-01   1.1272135e-09
  2.2146431e-01   2.2506137e-10
  1.3050537e-01   6.7574851e-10
 -8.4323816e-02   8.4589228e-12
  5.3956187e-06   2.1199028e-08
  1.1670440e-07   1.7261742e-09
  5.8550693e-05   1.1156551e-11
 -2.4848541e-05   9.8895558e-09
 -1.2952615e-04   3.8105103e-08
  4.3362033e-06   4.4332754e-08
  9.1768652e-07   8.9214240e-14
  1.7791019e-05   1.1529194e-08
  3.8138263e-05   7.0598222e-10
 -4.4602020e-06   5.9958197e-08
  1.5576159e-06   4.7115893e-09
  1.6039601e-04   1.6506030e-09
  8.8842498e-06   2.7792564e-07
  7.4339928e-06   1.2835173e-07
 -1.9673535e-05   5.6291928e-08
  8.8475035e-06   3.8051828e-10
  6.6548596e-06   1.6731655e-09
 -2.1189862e-05   7.0656875e-10
  5.7556077e-05   6.1531637e-08
  2.3878945e-05   5.4184010e-08
 -7.0354139e-07   7.2035697e-11
 -3.4491277e-05   3.2550216e-07
  3.0177880e-05   5.8933325e-10
  2.2631533e-05   1.2386985e-08
 -6.8090394e-06   2.6487230e-09
  2.6873524e-06   2.1180208e-10
  6.5724425e-06   9.8658930e-09
 -3.4557692e-05   9.0532956e-11
  1.2784012e-05   3.7432406e-07
 -5.6820063e-06   1.8795693e-07
 -1.0697709e-05   3.1956816e-11
 -3.9459639e-05   1.4423227e-09
 -8.0773052e-06   2.5095675e-08
 -1.3399081e-06   1.7662680e-06
 -4.3147279e-06   1.0739535e-07
  2.4827275e-01   1.2137835e-09
 -1.3258489e+00   2.1541293e-09
  2.5406988e-02   2.1711021e-12
  3.0364034e-01   8.0624958e-11
  8.5041612e-02   6.3612632e-10
  1.1446584e-01   2.2222580e-12
 -5.0097197e-01   3.9553787e-09
 -8.0117781e-05   1.0007393e-07
  3.4158304e-05   4.3055732e-09
 -2.3345463e-05   3.3175836e-12
 -2.1444046e-06   7.5077518e-09
  4.5698389e-06   1.6317402e-10
  1.1681011e-05   3.6427233e-10
  3.8119324e-05   4.0860701e-09
 -2.0784040e-05   3.1085108e-08
 -9.8169266e-06   4.3228471e-10
  3.9360402e-05   1.4034566e-09
 -1.1574310e-05   1.1894542e-08
  1.0915937e-05   1.1987157e-08
 -1.4483020e-06   1.7476988e-07
 -1.5550215e-05   2.9287982e-08
 -8.2628212e-06   8.3605137e-08
  7.5050812e-06   8.5989310e-10
  3.9792496e-05   2.5426999e-11
  4.9665173e-06   1.4308896e-08
  3.1977438e-06   1.3166565e-08
  1.7043936e-05   5.3931726e-10
  1.9799152e-05   2.6438121e-09
  2.5616418e-05   2.5445672e-08
 -1.7566232e-05   8.8639659e-08
  2.8372026e-05   4.4741062e-11
 -1.7978458e-05   1.0622717e-08
  1.5691090e-05   6.6236958e-09
  4.7748883e-05   4.0538182e-09
 -6.5895802e-05   1.0161030e-08
  1.5905420e-05   6.0483126e-07
  1.1905417e-05   3.4884529e-08
  1.6267965e-06   1.7623271e-10
  8.3645418e-06   1.3441481e-11
 -3.1778105e-05   1.7357842e-06
 -8.9633641e-06   4.4152042e-09
 -1.1606436e-05   9.0593109e-11
  6.7485325e-02   1.5849959e-10
  1.4588740e-04   4.8665505e-10
 -4.3617317e-01   9.1160901e-10
 -7.1812812e-03   3.9698494e-11
 -1.7698962e-02   6.5162022e-11
 -7.6926211e-05   3.0815107e-11
  3.4413668e-03   5.5728161e-10
 -2.2560789e-05   1.5287578e-09
  6.5448367e-05   4.5311435e-08
  1.1887860e-05   3.4778644e-08
 -4.8771923e-05   1.9126320e-10
 -7.1334316e-06   3.0557050e-07
 -4.4007007e-05   4.6139457e-09
  2.3237023e-06   1.0261239e-09
 -6.4719065e-06   5.8856733e-07
 -1.7045001e-06   2.0993332e-10
 -2.0247775e-05   4.7005750e-09
 -1.6335101e-06   5.4215015e-09
 -1.0144369e-05   2.4593459e-07
 -1.0815697e-05   1.8709567e-08
  2.5349638e-05   6.9580417e-09
  1.4872272e-05   5.0071796e-09
 -3.3008539e-05   1.7435115e-08
 -1.2755081e-05   8.0914555e-09
  2.3778373e-05   2.0618631e-07
 -6.5515896e-06   2.8514258e-08
  2.7425773e-05   2.3735778e-08
  1.9577328e-05   6.5531617e-12
 -4.1790663e-06   3.7257968e-07
 -6.8939175e-05   1.3394959e-08
 -2.6277747e-05   1.5621241e-08
 -6.9283476e-07   2.2255172e-08
  5.6112121e-06   1.6374933e-08
  1.8437893e-05   3.3645495e-09
 -3.4913533e-06   2.3814102e-11
  8.8000515e-06   3.0011660e-09
  8.4839803e-06   7.1285115e-08
  5.9357459e-05   1.5702882e-11
  4.4944509e-06   1.5387591e-09
  5.1805182e-05   4.0200393e-07
  4.9274764e-05   6.1444405e-11
 -1.0089447e-05   9.2657455e-09
  6.9668263e-06   6.9499428e-10
  1.4251497e-05   4.2471657e-09
  3.6366466e-05   3.8678508e-10
 -1.9451889e-05   1.6376520e-08
 -2.7607011e-05   6.4353436e-08
  1.1718916e-05   3.0658704e-08
 -2.4062674e-05   8.6215355e-09
  6.1378519e-06   6.3699782e-11
  5.7561260e-07   2.9910416e-07
 -3.0241605e-05   3.5515026e-07
 -3.0070947e-07   4.0954813e-08
  1.1164017e-05   4.0511355e-07
  5.2525638e-07   2.8567842e-06
  6.3156140e-06   2.4975802e-06
  3.8441963e-06   7.9301219e-07
  7.5185485e-06   1.7971109e-07
  2.0298725e-05   1.9667572e-09
  1.1112837e-07   2.3354792e-06
 -2.7668764e-06   4.1951375e-06
  2.1534324e-05   3.7416310e-08
 -9.8187020e-06   3.4247529e-12
  1.7258482e-05   5.5049372e-06
 -3.5091274e-05   2.2881643e-07
 -2.0835971e-05   1.0123881e-07
  7.5387702e-06   1.7174918e-06
  9.8175078e-06   5.6755226e-07
  1.7439714e-05   2.5277327e-06
  1.3687037e-07   1.6325169e-08
 -2.3915960e-05   1.8241390e-07
 -1.4758883e-05   2.2481295e-06
  1.3304374e-06   3.0316610e-08
  6.3222506e-06   5.2889732e-07
  9.8301301e-05   2.2317681e-06
 -1.2891338e-05   2.4472051e-09
  1.5084485e-05   9.1979324e-08
  2.0287045e-05   1.6688483e-07
 -3.6895171e-06   3.8611884e-06
  4.5446754e-06   2.0392180e-07
 -1.2448252e-06   4.5872303e-06
 -2.2371576e-06   8.0888213e-08
 -9.6493995e-06   8.1739824e-09
  3.4005645e-06   1.6237806e-09
 -3.0839077e-01   8.8937402e-10
  1.9119892e-04   4.4540524e-11
 -1.3256597e-02   1.3994477e-11
 -8.0796927e-02   9.8950223e-11
 -1.2182780e-02   1.4047883e-09
 -4.3648404e-05   6.0967598e-10
  9.2895709e-02   1.4690271e-09
 -3.5886249e-05   7.5012501e-08
 -1.6968937e-06   1.3100155e-08
  1.2046682e-04   2.7711392e-11
 -4.6826995e-06   8.4855317e-10
  1.2568486e-05   1.9326261e-07
  5.7714528e-06   2.7950409e-09
  4.3746644e-05   2.1507162e-07
 -3.6949557e-05   7.1746871e-09
 -9.7104148e-06   7.4805371e-08
 -2.5799534e-06   9.2466941e-09
 -1.2749791e-05   3.0152911e-08
  4.0742384e-06   5.2510437e-08
  5.1704064e-05   1.9136115e-07
  1.2985766e-05   2.7684158e-10
 -1.2963944e-05   1.1427847e-08
  1.1194425e-05   9.0436984e-08
  8.9747627e-06   6.0546351e-10
 -2.8487984e-05   2.1198019e-08
 -1.3181712e-05   1.7256866e-09
  1.7442910e-05   6.0620081e-08
  5.0666575e-05   9.7250941e-10
 -4.0540461e-05   1.1943968e-11
  1.3926075e-05   3.3638692e-08
 -2.3827697e-05   1.0441712e-08
 -2.7578417e-05   5.0722850e-08
  3.6390493e-06   7.5616349e-08
 -1.0121994e-06   2.4168014e-07
 -5.6104000e-05   2.3059863e-09
  6.3728140e-07   9.3762054e-08
 -5.2487900e-05   4.8836135e-09
 -1.6999253e-05   8.4674366e-07
 -1.2088910e-05   7.4810314e-12
  3.7234777e-06   5.5214544e-09
 -8.1771520e-07   4.3544311e-08
 -1.3961285e-05   2.6280752e-06
 -9.2422670e-01   2.0348436e-11
 -1.3624209e-01   1.0136660e-12
 -3.1525305e-01   4.2510945e-10
 -1.2173667e+00   4.4462438e-09
  1.0767728e+00   2.0924534e-10
  6.8864180e-03   1.2645386e-13
 -5.6499100e-01   5.6379951e-10
  1.0989051e-05   2.1643844e-09
 -1.2304941e-04   1.0702149e-09
 -1.5865506e-04   1.8545572e-10
 -9.4730458e-06   6.3686965e-11
  7.9846628e-05   8.1936680e-11
 -3.4468314e-05   4.0620857e-10
 -3.2612754e-03   2.0426424e-10
 -1.1806906e-04   4.9675206e-09
 -1.3185647e-05   8.2013812e-11
  8.7858944e-06   2.8262661e-09
  2.5988644e-04   2.6809142e-09
  5.0819002e-04   2.8364113e-09
 -9.9798842e-07   2.4947920e-07
 -1.9246235e-04   2.9406014e-10
 -2.6462772e-01   3.3354375e-09
 -1.2053804e-03   3.6754874e-10
  2.0793518e-03   2.2620890e-09
  7.7884042e-06   1.4693870e-10
 -4.0756200e-05   5.5311422e-09
  1.0996958e-03   3.2746757e-11
  8.5236141e-05   5.4610580e-11
 -4.3502720e-03   5.6960808e-10
 -1.0339795e-06   2.1561231e-10
  5.2660541e-03   1.7100618e-09
 -4.5275347e-06   6.3148115e-10
 -5.7942075e-06   1.5283767e-08
  1.1825561e-04   5.9347114e-09
  7.1332610e-04   2.0131439e-09
 -2.3706334e-05   5.6001714e-11
 -8.2133965e-06   6.4913536e-10
  1.9647872e-05   1.5138394e-07
 -2.5009962e-05   1.0566094e-07
 -8.2334225e-08   7.9242275e-09
  1.0684238e-04   5.8057242e-07
 -1.7326651e-05   6.6271610e-07
  2.9148710e-01   5.7633726e-10
 -3.2629289e-02   1.3089653e-10
 -6.9139250e-02   2.4024211e-11
 -2.5529362e-02   2.5522187e-10
  4.1519091e-01   2.7202368e-10
  1.4980389e-01   1.0674097e-11
 -9.3906510e-01   1.6625267e-09
 -1.4226385e-05   4.1909632e-07
 -7.5063480e-07   2.9468419e-09
  9.0240661e-05   1.9913133e-09
 -3.4133220e-05   3.7443929e-10
  4.5359982e-05   1.8094742e-10
 -2.8680327e-06   3.4765744e-08
  9.5172090e-06   5.5124416e-10
 -1.1647708e-05   4.1944929e-08
 -4.2076052e-05   8.3833712e-10
  2.1081898e-04   3.2725394e-09
 -9.4291754e-06   8.2069684e-09
  7.7731784e-06   8.5034451e-08
 -1.7810847e-06   7.8911278e-09
 -2.1123326e-04   1.8677551e-09
 -1.3931965e-05   1.4036045e-08
 -1.9803758e-04   1.3925140e-08
  5.6425463e-03   2.1018511e-09
  1.1454558e-04   3.1811087e-08
  6.3713235e-03   1.1218874e-08
 -3.6605907e-06   5.0142432e-09
 -3.0396051e-05   4.9047872e-09
  5.3350004e-06   3.3590855e-08
 -8.5888605e-05   6.5410997e-12
  3.3241059e-03   6.9548589e-11
  1.5944639e-05   2.5835103e-08
  1.9175078e-01   6.6040740e-10
 -1.9303301e-05   6.6250649e-08
 -8.4787698e-06   1.5582166e-09
 -3.9355969e-06   1.2154251e-10
 -1.1399692e-04   1.2448127e-09
 -5.0341788e-07   5.2293093e-11
  1.3176877e-05   1.0298966e-07
  3.9175357e-06   3.2352021e-10
  7.6348315e-06   9.7029478e-08
  2.2548022e-06   3.1354883e-08
  1.6164474e-01   2.2283854e-10
  3.2916859e-02   1.4929937e-11
  2.8764641e-01   1.9419064e-10
  9.0211117e-01   3.8099368e-09
  1.0992692e+00   1.1441925e-09
  4.9285996e-01   8.4403188e-12
 -1.0982203e+00   5.5143836e-09
  1.0576938e-06   8.7816288e-09
 -2.0432630e-01   2.6396005e-09
  2.8960544e-01   2.7056415e-09
  8.8174973e-04   1.4688740e-11
  2.7099553e-01   7.8887545e-09
 -3.2788448e-05   5.5098528e-08