128
lattice="20.333578 0.0 0.0 0.0 20.333578 0.0 0.0 0.0 14.0" energy=21.27204572 virial="91.52713768301437 5.8759482700321595 2.2217343294714627 5.8759482700321595 111.37873999681234 -5.037450936015261 2.2217343294714627 -5.037450936015261 79.53509758746681" properties=species:S:1:pos:R:3:force:R:3
Ne 4.88762 19.22322 5.93174 -0.335206 0.366839 -0.431526 
Ne 4.8844 2.1322 6.01256 -0.628788 -0.019074 -1.525272 
Ne 2.3843 3.16245 5.98814 0.159087 0.136736 -1.171983 
Ne 0.18286 7.13171 5.78534 -0.037886 0.166975 -0.225373 
Ne 20.30322 10.1483 6.0148 -0.021817 -0.400585 -0.385407 
Ne 0.00585 12.48676 6.04809 0.246137 0.212583 -0.673636 
Ne 19.37137 14.89485 5.88495 -1.119782 -0.954642 -0.602038 
Ne 1.67712 19.47453 5.91325 0.767641 0.147852 -1.025364 
Ne 7.02167 0.42156 6.04789 -0.092679 0.036086 -0.49388 
Ne 7.42121 1.82958 8.21886 0.323956 -0.055686 0.334073 
Ne 4.76994 4.92163 5.82534 -0.012885 -0.237582 -0.634536 
Ne 2.81367 6.2891 6.09991 0.175316 0.066975 -1.280012 
Ne 2.52592 11.49589 5.95596 -0.251578 0.176489 -0.780554 
Ne 1.70694 14.34733 6.13996 0.087072 -0.378341 -1.031984 
Ne 0.42215 16.37039 5.97249 1.237157 1.043623 -0.97123 
Ne 3.12505 17.05418 6.33083 0.274416 0.398311 -1.395182 
Ne 8.33705 18.52219 6.1002 -0.13626 0.031261 -0.882009 
Ne 9.16938 1.36201 6.02892 -0.859823 0.255749 -0.743534 
Ne 6.92981 3.4131 5.94828 0.489096 -0.114457 -1.01457 
Ne 5.28111 7.73203 6.10903 -0.210735 -0.764577 -0.269104 
Ne 4.26658 9.69309 5.87524 -0.700294 0.427021 -0.488616 
Ne 5.55627 11.98112 6.20355 -0.377508 0.032542 -0.600053 
Ne 4.15209 14.18011 6.1421 -0.078591 -0.152248 -0.508266 
Ne 5.83365 17.1388 6.23453 0.590965 -0.218695 -0.998917 
Ne 10.63165 16.8352 5.98897 0.09155 0.098338 -0.716529 
Ne 10.53502 19.92505 5.92407 -0.510556 -0.686588 -1.025525 
Ne 10.32746 4.98633 5.91676 0.295618 0.499478 -1.325062 
Ne 7.05917 6.08181 6.22433 -1.30077 -0.137507 -0.911586 
Ne 6.55166 9.64743 6.02813 0.95976 0.130171 -0.730357 
Ne 7.96649 12.4085 6.56814 0.059951 -0.608458 -0.693238 
Ne 6.68129 14.43733 5.97016 -1.160927 -0.55129 -1.31337 
Ne 8.2271 15.86406 6.10803 0.598681 0.746797 -0.631327 
Ne 12.63752 18.42373 6.14211 -0.1981 -0.305784 -0.973159 
Ne 10.73381 2.80565 5.75337 0.801822 -0.020772 -0.363101 
Ne 13.44151 3.20685 5.89858 -0.470524 0.032797 -0.649994 
Ne 10.52757 7.81879 6.23033 -0.049636 0.73778 -2.051935 
Ne 11.40774 11.36417 6.73672 0.280703 -0.67688 -0.084843 
Ne 10.14047 13.04149 5.85136 -0.064463 0.516184 -1.032664 
Ne 12.31487 14.35636 5.6935 -0.259605 1.217655 -0.502741 
Ne 12.63285 0.2435 5.83004 0.763818 1.107181 -0.62271 
Ne 15.72293 3.51563 5.79394 0.654007 0.576097 -0.548863 
Ne 15.20509 6.06671 5.58513 0.012244 0.218116 -0.409924 
Ne 12.73854 6.04936 5.8753 -0.187846 -0.124882 -0.364451 
Ne 12.87792 9.05943 6.08994 -0.82734 -0.539863 -1.085484 
Ne 13.11897 12.40874 5.74739 0.250369 -0.469316 -0.508045 
Ne 15.22526 13.40934 6.1041 -0.019329 -0.260268 -0.614073 
Ne 14.65949 16.8008 6.46474 -0.027124 0.033189 -0.426528 
Ne 15.13347 19.58596 6.22442 -0.428945 -0.689712 -0.695349 
Ne 15.26433 1.4574 6.2811 -0.032046 -0.132566 -0.142783 
Ne 17.63394 5.72189 6.33798 -0.284349 0.234435 -1.581585 
Ne 17.68081 7.94975 6.39919 0.070798 0.629053 -0.791483 
Ne 15.1933 8.74212 6.30731 0.419002 -1.796097 -0.733962 
Ne 14.49673 10.61538 5.91902 0.169373 1.337874 -0.526777 
Ne 16.46017 15.34757 6.38686 -0.310067 0.083203 -1.047226 
Ne 17.91046 17.09944 6.11554 0.351419 -0.183523 -0.570557 
Ne 17.60155 19.32374 6.13447 0.030366 0.200083 -1.169561 
Ne 19.33469 0.43555 5.74425 -0.181133 0.430275 -0.763269 
Ne 0.97899 1.47002 6.34736 0.206811 0.824084 -1.196914 
Ne 0.42364 4.74832 6.3727 0.151683 0.222026 0.008033 
Ne 16.27856 7.35249 8.0949 -0.152631 -0.218947 0.597489 
Ne 17.35545 10.42865 5.86519 0.072586 0.092625 -0.200315 
Ne 17.98748 12.93143 6.58849 0.084748 0.157697 -0.394824 
Ne 18.00237 15.49953 7.89426 0.580568 0.069044 0.928849 
Ne 19.91945 18.66715 6.31743 -0.129378 -0.489612 -0.353257 
Ne 2.96551 1.81219 7.80937 0.069348 -0.25499 0.471721 
Ne 2.16478 6.56222 8.05914 -0.749777 -0.425131 1.371114 
Ne 18.05508 4.55176 7.92388 0.4174 -0.920501 1.479011 
Ne 19.02019 6.84614 7.95785 0.425941 -0.197044 0.521205 
Ne 18.88159 9.25808 8.01033 -0.202579 0.225243 0.327595 
Ne 19.5465 11.62514 7.99744 -2.154561 0.673072 0.456632 
Ne 19.99307 16.81864 7.92846 -0.1596 -0.146767 1.037087 
Ne 3.46923 19.51858 8.15695 -0.187699 0.694793 0.276167 
Ne 5.2934 0.83535 7.65162 -0.083606 -0.641857 0.92332 
Ne 5.59584 3.25566 7.70634 -0.399205 0.502605 1.216801 
Ne 0.89501 8.5733 7.85211 -0.085374 -0.034803 0.094347 
Ne 3.25802 11.01882 7.98544 0.864941 -0.645721 0.681486 
Ne 1.04753 10.97627 8.1734 1.478628 -0.516573 0.501315 
Ne 0.15446 14.17813 7.8373 -0.162732 -0.091135 0.796789 
Ne 2.20013 15.80147 7.73061 -0.137676 -0.354251 1.375168 
Ne 1.57009 18.20831 7.76663 -0.002929 -0.344128 0.698603 
Ne 9.07602 20.26063 7.76835 -0.636977 -0.646128 0.687598 
Ne 7.85259 4.35345 7.79743 0.015128 -0.028773 0.668812 
Ne 2.87741 4.33615 7.72491 0.234855 0.169011 0.815523 
Ne 3.33008 8.38454 7.7745 0.49515 0.487762 0.117372 
Ne 2.78827 13.1692 7.90783 -0.051508 0.482683 0.472008 
Ne 5.26203 15.47955 7.64473 0.086452 -0.496763 0.811018 
Ne 4.55233 17.61471 7.9689 0.043337 -0.015648 1.097806 
Ne 6.6168 19.00175 7.6946 -0.207978 0.469361 0.492034 
Ne 9.65448 17.95046 7.84716 1.73543 0.381888 0.516712 
Ne 10.11859 1.82165 8.05397 0.501885 0.613699 0.686098 
Ne 5.15343 5.6707 7.94715 0.002496 0.309735 0.613288 
Ne 6.65201 7.9119 8.06974 0.200581 -0.213743 0.387287 
Ne 5.56805 10.0254 7.96733 -0.402597 0.038864 0.801019 
Ne 6.36891 12.26225 8.28593 -0.134611 0.246279 0.891437 
Ne 7.73301 14.26473 7.77619 0.368982 0.272385 1.552019 
Ne 7.81245 17.15703 8.09683 -1.215912 -1.077683 0.765473 
Ne 11.55718 20.13166 7.82296 0.228705 -0.102651 1.135107 
Ne 10.25443 4.22434 7.8917 0.276799 -0.173031 1.09819 
Ne 8.90669 6.29018 6.97999 0.56184 -0.828778 -0.21989 
Ne 9.25313 7.86861 8.1347 -1.164171 0.665601 1.783055 
Ne 8.09884 10.33646 8.0954 -0.210602 0.056633 0.301316 
Ne 9.89863 12.49159 7.96886 -0.448415 -0.054066 1.206623 
Ne 9.97851 15.26252 7.5547 0.242673 -0.229055 0.503465 
Ne 12.53239 16.67114 7.51641 -0.803976 -1.259489 0.362002 
Ne 13.43369 2.29899 8.03414 -0.442987 0.587473 0.416079 
Ne 13.29415 4.43805 7.93444 -0.509888 0.918302 0.345265 
Ne 11.1754 6.87726 7.8734 1.205723 -1.124084 1.527869 
Ne 9.19834 9.86472 5.82353 -0.183816 0.162054 -0.529703 
Ne 10.29692 9.62555 7.86902 1.048195 0.898733 0.456437 
Ne 11.96286 13.65848 7.87004 -0.072247 -0.063074 0.538246 
Ne 13.65313 18.35657 8.08916 0.747528 0.565238 1.157455 
Ne 13.95296 0.35427 8.11972 0.498229 -1.212169 0.465902 
Ne 16.56458 2.5371 8.17941 -0.102521 -0.012126 0.244957 
Ne 19.01024 3.24033 6.03578 -0.239927 0.053566 -0.661512 
Ne 13.63728 7.27486 7.69766 0.199404 -0.080669 0.421033 
Ne 13.10909 9.75021 8.08532 -0.040389 0.154813 1.090918 
Ne 14.05404 11.97049 8.1224 -0.30551 0.166576 0.31438 
Ne 14.05573 14.68574 7.84392 0.001244 0.236993 0.242001 
Ne 16.38401 18.07865 7.66064 -0.599407 -0.882542 0.571998 
Ne 16.64137 20.27882 7.79023 -0.016439 1.109622 1.151302 
Ne 18.92621 1.69798 7.676 -0.450185 -0.407071 0.629544 
Ne 0.46409 2.93301 8.1796 0.254454 0.35211 0.489293 
Ne 15.51939 4.95359 7.65614 0.193089 0.076249 0.524531 
Ne 15.88597 9.82966 7.98268 0.243898 -0.013056 1.043224 
Ne 16.34671 11.99612 7.85743 0.322625 -1.299567 0.13098 
Ne 16.29149 13.98888 8.13047 -0.054051 1.047274 1.235859 
Ne 18.52035 18.65151 8.27823 0.279986 0.233574 0.701818 
Ne 0.58172 0.02235 7.70593 -0.423213 -0.5644 1.736365 
128
lattice="20.333578 0.0 0.0 0.0 20.333578 0.0 0.0 0.0 14.0" energy=23.83022239 virial="109.70062535732977 3.3288802987483743 3.9581958686238683 3.3288802987483743 117.92652662366204 2.2581153375008918 3.9581958686238683 2.2581153375008918 76.37988511950044" properties=species:S:1:pos:R:3:force:R:3
Ne 3.5605 9.43579 8.0238 -0.133255 -0.594315 0.622898 
Ne 6.26035 10.25251 7.7008 -1.36038 0.594391 0.947407 
Ne 18.85945 7.90921 8.13841 0.524408 0.042909 1.319577 
Ne 17.98668 8.1467 6.27373 -0.56235 0.457684 -1.364672 
Ne 18.62718 12.01292 5.62087 0.173904 0.088737 -0.311064 
Ne 7.42265 9.98663 5.69028 -0.028198 0.010052 -1.016388 
Ne 4.86812 10.17128 5.9886 0.26579 0.267115 -0.715651 
Ne 7.33949 1.56041 5.8336 1.248619 -0.372643 -0.697648 
Ne 10.20202 0.64841 6.01704 -0.475049 -0.643567 -0.64013 
Ne 19.96261 2.51216 8.03444 0.535332 0.32583 1.063499 
Ne 11.6487 1.42454 7.55719 -0.052291 -0.074038 0.419983 
Ne 0.01298 0.3083 7.65535 -0.005415 -0.01792 1.08083 
Ne 6.6261 6.91815 6.21544 0.142891 -0.249438 -0.831673 
Ne 6.00041 19.89396 6.0503 0.20562 -0.3642 -0.321442 
Ne 12.72366 17.94333 8.09095 -0.070218 -0.002673 0.535313 
Ne 11.20484 19.58178 7.71987 -0.47668 0.159755 1.1008 
Ne 8.79969 18.90914 6.75417 0.345174 0.933915 0.176911 
Ne 18.31975 1.6072 7.01725 -0.569194 -0.610166 -0.304662 
Ne 6.87066 12.58302 6.08561 0.309389 -0.170703 -0.613363 
Ne 5.69443 13.2446 7.87912 -2.359555 -2.474507 1.000609 
Ne 2.7719 11.40954 7.90362 0.441406 0.734247 0.327447 
Ne 5.28828 1.85659 6.15058 -0.239711 1.49341 -1.132531 
Ne 7.90403 17.08639 6.10503 -0.26798 1.556454 -1.240946 
Ne 13.72653 17.5478 5.81007 -1.174478 -1.330594 -1.74581 
Ne 15.45036 4.53688 7.84506 0.706859 -0.078054 0.329628 
Ne 15.75288 16.62988 6.19693 0.609563 -0.425463 -0.625869 
Ne 4.31335 3.80672 7.99523 0.051979 -0.441397 0.243991 
Ne 7.30201 5.52936 8.18551 -0.227446 -0.240745 0.778248 
Ne 4.0287 6.62842 5.84025 0.28923 -0.040229 -0.555828 
Ne 4.24653 12.65836 5.89887 0.279438 -0.040147 -0.287328 
Ne 2.21486 6.39794 8.42945 0.238712 0.209372 0.516659 
Ne 10.88016 5.16761 5.82953 -0.040754 0.177772 -0.498248 
Ne 14.37583 19.23359 6.54671 -1.102967 0.818756 -1.681346 
Ne 20.16014 14.40637 6.02803 -0.384443 -0.112863 -1.394486 
Ne 4.51996 17.19943 6.05894 -0.209212 0.419264 -0.540051 
Ne 5.41621 15.10159 5.69264 0.114203 -0.300658 -0.307493 
Ne 2.41079 15.7987 5.8195 0.26879 0.182142 -0.97155 
Ne 10.55409 2.82309 5.77235 -0.256121 0.106187 -0.839594 
Ne 20.18787 17.81584 7.75302 -0.084081 -0.403051 0.843293 
Ne 8.91027 12.78254 7.70254 -0.151612 0.843986 0.045121 
Ne 16.14003 0.27357 6.09028 0.325347 0.804522 -0.761908 
Ne 18.21216 19.40314 7.86652 0.219511 0.355147 0.731821 
Ne 13.85758 11.2072 8.29117 0.226959 -0.624632 0.388547 
Ne 9.72447 10.85306 6.09013 0.39734 0.055892 -0.636699 
Ne 11.12526 6.31164 8.1595 -0.075459 0.210144 0.320481 
Ne 20.0687 13.20113 7.93955 -0.093841 0.792222 0.768701 
Ne 20.28235 7.10254 6.03276 -0.482607 -0.351452 -0.466934 
Ne 12.64221 12.13316 5.90267 0.579156 -0.223419 -0.491584 
Ne 1.25708 4.36101 8.07574 0.121251 -0.226028 0.679839 
Ne 16.43659 7.9225 8.08155 1.15954 -1.684715 1.065535 
Ne 0.57402 11.37865 7.75968 0.46773 -1.223301 -0.012851 
Ne 8.26564 10.73219 7.79176 0.905538 0.28589 0.922758 
Ne 11.53695 10.71434 7.80053 0.069768 0.683274 0.439677 
Ne 11.85905 8.91121 6.63859 0.007759 0.231505 -0.360119 
Ne 2.02043 12.94707 6.29414 -0.433471 0.092814 -0.379359 
Ne 17.72925 14.9763 5.98338 -0.582433 -0.478848 -0.598807 
Ne 20.14313 19.14926 6.00404 -1.261974 -0.019407 -1.003926 
Ne 17.94737 4.03101 8.2536 -0.360441 -0.219657 0.43084 
Ne 18.95088 15.2925 7.89349 0.169303 0.545394 0.80316 
Ne 16.16029 12.17933 8.08503 -1.210725 -0.941157 0.792603 
Ne 10.23306 8.92403 8.26496 -0.295415 -0.160277 1.17005 
Ne 8.38887 15.27134 6.05864 1.052526 -2.935017 -0.422253 
Ne 1.36686 2.65223 6.06738 0.878584 -0.493645 -0.6698 
Ne 20.09145 1.09494 5.59965 -0.636329 0.432919 -1.143737 
Ne 17.9712 5.74019 6.0225 -0.280137 0.203462 -0.381368 
Ne 18.84877 16.89766 6.01688 0.321001 0.309121 -0.456379 
Ne 5.84024 4.49855 5.96319 -0.082339 -0.063725 -0.274456 
Ne 8.75313 6.17746 6.67487 0.284543 0.080061 -0.545709 
Ne 1.79198 0.1602 5.85605 -1.093347 0.696763 -0.884983 
Ne 15.57765 13.43748 6.00744 -0.107894 -0.1506 -0.540127 
Ne 17.07019 18.49208 6.26785 -0.093315 -0.065522 -0.848188 
Ne 4.32505 18.94874 7.75361 -0.019548 -0.086539 0.360874 
Ne 13.43172 4.15089 6.19018 0.299218 0.00317 -1.136696 
Ne 13.8235 1.85482 6.12919 0.124372 -0.337775 -0.642933 
Ne 17.10012 17.00865 8.20314 -0.017631 -0.048528 0.463709 
Ne 20.14898 4.00038 6.34253 -0.958774 0.750433 -0.953295 
Ne 1.26587 14.9959 7.47764 -0.173092 0.11415 1.253219 
Ne 15.19429 9.25964 7.42512 -0.300057 2.656595 -0.046202 
Ne 13.2971 13.26913 7.86261 0.479125 0.624725 0.370168 
Ne 2.70652 2.15705 7.81196 -0.377577 -0.22205 0.450926 
Ne 19.45538 5.61125 7.78197 0.380193 0.463192 0.66736 
Ne 9.59619 4.43369 7.8187 0.514871 -0.186809 1.278995 
Ne 16.28413 2.03937 7.9361 -0.30893 -0.025608 0.307476 
Ne 2.73684 9.76856 5.70664 -0.730251 0.074526 -0.416176 
Ne 3.51766 14.679 7.70748 0.228618 -0.375476 0.231327 
Ne 16.551 10.82595 6.27076 0.05802 -0.182581 -0.534496 
Ne 3.7467 0.41653 6.08937 0.611479 -0.510718 -0.576422 
Ne 6.58749 17.95505 7.39459 -0.557225 0.606723 1.074478 
Ne 6.85225 2.73326 7.76393 -0.489424 0.319715 0.870086 
Ne 7.16199 0.35381 8.37553 -0.108577 -0.403837 0.23451 
Ne 4.97034 5.88546 7.98477 -0.096882 0.503988 0.400007 
Ne 2.03198 7.54971 6.44129 0.37821 0.235548 -0.227613 
Ne 9.89558 17.07446 8.07135 -0.045553 -0.030816 0.196818 
Ne 13.58899 0.37933 8.01587 -0.179267 0.081387 0.750709 
Ne 1.93166 19.44258 7.83309 0.35459 0.440582 1.350849 
Ne 13.29908 14.78178 6.10964 -0.078696 -0.29771 -1.056013 
Ne 14.06698 16.24081 7.51553 0.105705 -0.382431 1.488263 
Ne 9.01527 1.76643 7.97392 0.449585 0.032437 0.2146 
Ne 7.73209 8.63965 7.52134 0.140519 -1.253599 0.582 
Ne 5.22108 8.17685 7.28382 -0.111088 -0.048369 0.337733 
Ne 20.27976 9.5124 6.30455 -0.106022 0.234681 -0.767929 
Ne 11.11145 12.9909 8.35325 -0.211429 -0.141325 0.87669 
Ne 11.55286 15.18705 7.71336 0.079718 0.183272 0.796443 
Ne 13.47984 5.64211 7.83469 -0.317099 -0.084515 0.735176 
Ne 10.91913 15.92552 5.74985 -0.196203 0.280523 -0.75308 
Ne 15.13177 5.76808 5.90838 0.473755 -0.392215 -0.516095 
Ne 13.94077 2.79971 8.27247 -0.071631 -0.015679 0.695063 
Ne 5.06665 16.35577 8.15304 0.023279 -0.054616 0.665955 
Ne 13.74864 7.83973 7.8962 -0.880116 -0.16747 1.236553 
Ne 6.8954 14.64849 7.68146 2.081194 2.457806 0.152826 
Ne 15.5464 19.59179 7.99942 1.899818 0.048516 2.758353 
Ne 9.63924 8.15933 6.30089 0.132262 0.128085 -1.088501 
Ne 4.70327 1.05635 7.96741 0.225065 -0.365775 1.814353 
Ne 11.39169 18.53707 5.89413 0.000727 -0.432202 -1.042174 
Ne 14.65409 7.87772 5.89803 0.186558 0.112469 -1.418319 
Ne 12.4178 6.9537 6.05046 0.101046 -0.739782 -0.712625 
Ne 18.73791 10.69041 7.78788 -0.554773 -0.184746 0.328156 
Ne 11.78728 3.54083 7.44797 -0.126802 0.801234 1.013911 
Ne 8.25494 3.76235 6.34127 -0.305717 -0.028782 -1.169776 
Ne 15.85264 14.5162 8.05825 -0.14565 0.517948 0.471648 
Ne 17.85691 13.22962 7.75539 0.735694 0.376287 -0.112795 
Ne 0.90271 8.77627 8.20608 0.213862 -0.038112 0.72045 
Ne 2.69928 4.67242 6.23504 0.113741 0.048208 -0.363354 
Ne 1.75314 18.35676 5.98225 0.916548 -1.490999 -1.132112 
Ne 13.66325 10.11458 5.83397 0.278372 0.04906 -0.496326 
Ne 10.84777 13.24779 6.06603 -0.879526 0.565261 -0.486119 
Ne 17.55703 3.47683 5.85173 -0.296679 -0.157745 -0.46397 
Ne 2.15038 17.15971 7.92073 0.44203 -0.376048 0.614072 
128
lattice="20.333578 0.0 0.0 0.0 20.333578 0.0 0.0 0.0 14.0" energy=16.8753157 virial="82.71596101442117 5.110212952074118 3.3302531669759006 5.110212952074118 93.95920987618726 2.878579520119971 3.3302531669759006 2.878579520119971 67.73616224655412" properties=species:S:1:pos:R:3:force:R:3
Ne 2.4523 0.36282 6.16199 0.057919 -0.160262 -0.381762 
Ne 3.44077 3.27395 5.98535 -0.086617 -0.257776 -0.51093 
Ne 2.86413 5.49776 6.52567 -0.305608 -0.254615 -0.21849 
Ne 0.7697 6.37712 6.06896 -0.583893 0.124058 -0.743393 
Ne 0.83599 9.03933 6.30392 -0.294162 -0.117351 -0.99725 
Ne 19.63675 11.42473 6.0172 -0.187339 0.142262 -0.578276 
Ne 0.23888 13.7365 6.29801 -0.420851 0.061291 -0.437903 
Ne 1.60381 18.13353 6.64907 0.008495 0.245519 -0.317083 
Ne 5.13866 0.47289 5.8333 -0.028798 -0.194515 -0.49895 
Ne 5.89584 2.70407 6.03987 0.226946 0.173429 -0.219914 
Ne 5.07816 5.2478 6.11938 0.06603 0.00871 -0.94732 
Ne 3.15661 8.26585 5.91108 0.000468 0.052914 -0.472746 
Ne 1.76 11.2629 5.9923 0.258326 0.100844 -0.349281 
Ne 3.02254 13.43529 6.0788 0.456277 -0.657636 -1.598054 
Ne 1.7777 15.54499 5.91448 -0.214009 0.452685 -0.883926 
Ne 4.14964 18.55358 6.13497 -0.239682 -0.126377 -0.705214 
Ne 7.56669 20.08452 6.12422 -0.305479 0.09683 -0.617754 
Ne 8.47461 2.13917 6.14438 -0.421408 0.357173 -0.545538 
Ne 7.62566 4.78413 5.90584 -0.160214 -0.906261 -0.728891 
Ne 6.25064 7.55245 6.243 -1.156323 -0.025692 -0.68064 
Ne 5.27151 9.93541 5.91009 -0.001097 0.103531 -0.789109 
Ne 5.25638 12.37476 6.21324 -0.099786 0.074361 -0.635583 
Ne 4.58372 15.789 6.17456 0.088258 0.052465 -0.533837 
Ne 6.51743 17.78846 5.83557 -0.045839 0.012898 -0.475539 
Ne 9.21867 18.39699 5.81713 0.386726 0.099513 -0.334949 
Ne 9.99336 0.55627 6.1928 0.593904 -0.182048 -0.715889 
Ne 10.18245 3.84278 6.47097 -0.470461 0.782609 -2.194626 
Ne 8.31774 6.76969 5.99302 1.038208 0.563521 -0.356842 
Ne 7.8704 9.23086 5.70082 0.088214 0.271918 -0.390971 
Ne 7.56741 11.76804 6.24262 0.142631 -0.170395 -0.689207 
Ne 7.01481 14.35692 6.15869 -0.481965 -0.229694 -0.724006 
Ne 8.35896 16.30826 6.28167 -0.02138 -0.089204 -0.333561 
Ne 12.24048 19.35309 5.63724 -0.824668 -0.527517 -0.491839 
Ne 12.38258 2.24864 6.12088 -0.183044 -0.137578 -0.45744 
Ne 12.82198 4.71272 5.67647 -0.19169 -0.267315 -0.605506 
Ne 11.3221 6.72252 6.05245 -0.26082 -0.073276 -0.355899 
Ne 10.74997 11.89212 6.47492 -0.837922 -0.162271 -0.768471 
Ne 9.27392 14.17004 5.79266 0.429198 -0.400912 -0.335138 
Ne 10.79065 16.14825 6.00839 -0.166215 0.840083 -0.251303 
Ne 14.13639 20.29917 5.8386 0.414059 0.294526 -0.395335 
Ne 15.11005 2.46268 5.91227 -0.542083 0.563261 -0.333314 
Ne 16.04568 4.87968 5.93262 -0.051949 -0.267972 -0.49677 
Ne 14.21257 6.56607 5.94294 0.381505 -0.006726 -0.371235 
Ne 13.14786 8.51988 6.00655 -0.567607 0.349531 -0.304039 
Ne 12.65558 10.94747 6.02422 0.594118 -0.347274 -0.959627 
Ne 12.16623 14.48752 5.96633 -0.194761 -0.601037 -0.642744 
Ne 13.37921 16.5096 6.5237 -0.620649 -0.077436 -1.200987 
Ne 15.28613 17.94343 5.9218 0.056081 0.703065 -0.68541 
Ne 16.35381 0.65929 6.08125 0.149638 -1.508773 -0.55703 
Ne 17.49433 2.43286 6.17941 0.718178 0.148915 -1.034143 
Ne 18.626 4.43911 6.02318 -0.166522 0.576766 -0.39637 
Ne 15.43198 9.07342 5.90951 0.102808 -0.314189 -0.515612 
Ne 15.40399 11.31155 6.37377 -0.910588 0.071573 -1.426312 
Ne 14.20922 13.62712 6.15933 0.084687 -0.581471 -0.811686 
Ne 15.63018 15.70316 6.06375 0.422342 0.033779 -1.127855 
Ne 17.74605 18.53209 6.30989 -0.436593 0.645098 -0.808626 
Ne 19.60323 20.07422 6.00177 -0.109645 -0.385881 -0.862109 
Ne 0.17445 1.80535 5.99449 -0.019758 -0.268643 -0.358889 
Ne 0.48543 3.9568 5.91162 0.702558 0.482678 -0.537013 
Ne 17.16748 6.90374 6.60472 0.292015 -0.033822 -0.52096 
Ne 18.13542 8.93172 5.88556 0.433707 0.162027 -0.835483 
Ne 17.25802 12.91576 5.96826 -0.024067 -0.047827 -0.460383 
Ne 18.20727 14.92669 6.96919 0.012891 -0.018998 -0.231245 
Ne 19.45113 17.30832 5.76298 0.564752 -0.651003 -0.618592 
Ne 2.12534 2.19323 7.63841 -0.155006 0.223317 0.489266 
Ne 0.96142 4.88177 8.18687 0.484061 0.389538 0.442455 
Ne 18.94447 6.06127 8.09068 -0.301444 -0.904128 0.36817 
Ne 19.86521 7.93233 7.79848 0.066161 0.075665 0.285355 
Ne 19.33636 10.0348 7.77861 -0.197903 0.606837 0.638978 
Ne 18.55269 12.70845 8.03285 0.19653 0.023757 0.382514 
Ne 20.11926 15.86612 8.12063 0.217979 -0.156662 0.225135 
Ne 0.52733 0.17385 7.85181 0.381046 0.112469 0.651116 
Ne 4.47987 1.42479 7.87783 0.021479 0.063263 0.397059 
Ne 4.76016 3.82166 8.01844 -0.107741 0.041571 0.564493 
Ne 1.76097 7.15199 7.92175 0.172149 0.36153 0.778345 
Ne 2.00845 9.80319 7.98988 0.213205 0.126053 0.782504 
Ne 0.79844 12.29905 8.10803 -0.088611 -0.413174 0.504488 
Ne 2.07903 14.19505 7.71714 -0.766469 0.323282 1.718719 
Ne 2.752 16.4485 7.78774 0.285245 0.28152 0.692698 
Ne 3.66371 19.49181 8.18645 -0.556681 -0.012984 0.571451 
Ne 7.17821 1.28393 7.99527 -0.161588 0.15607 0.457426 
Ne 7.81811 3.64937 7.9213 0.012789 -0.178029 0.616257 
Ne 4.088 7.00753 7.71389 0.467317 -0.507344 0.536048 
Ne 4.52032 9.14632 7.86997 -0.079378 0.197804 0.703343 
Ne 3.87391 11.4759 7.88669 -0.158502 0.156235 0.331164 
Ne 4.34016 14.13609 7.82171 0.368782 0.15526 0.685154 
Ne 5.25473 17.43561 7.86336 -0.229613 -0.73242 0.615146 
Ne 5.99975 19.49399 7.95212 0.328179 0.501618 0.291746 
Ne 8.97701 19.90631 7.9443 0.087561 -0.027267 0.884832 
Ne 10.25647 2.47306 7.94385 -0.09851 -1.325915 1.46965 
Ne 6.45816 5.59695 7.80212 0.242925 0.3884 0.908969 
Ne 7.56131 8.00786 7.89976 0.319087 0.009147 1.02655 
Ne 6.67452 10.18778 7.88829 -0.171897 0.297178 0.410708 
Ne 6.41647 13.10661 8.10833 -0.147964 -0.264371 0.744062 
Ne 6.89494 15.51316 8.07914 -0.104646 0.125864 0.707319 
Ne 7.8407 17.77308 8.05902 0.132595 0.078564 0.462444 
Ne 11.82737 0.3356 7.65687 0.408732 0.587377 0.462533 
Ne 11.76186 4.23898 7.84045 0.675426 0.400345 0.883869 
Ne 9.56073 5.44575 7.95784 -0.182152 0.17352 0.447124 
Ne 9.97372 7.75723 7.98545 0.135273 0.087106 0.446558 
Ne 9.00574 10.5563 8.07151 0.164487 -0.381003 0.369382 
Ne 8.66203 12.78747 7.95106 0.423013 0.593843 0.473798 
Ne 9.81029 15.50537 8.11573 -0.087784 0.133657 0.477683 
Ne 11.07347 18.59831 7.82643 -0.755148 -0.699673 0.214245 
Ne 13.78067 2.64906 7.95471 0.08821 -0.247296 0.56534 
Ne 14.08352 4.91899 7.65696 0.217886 0.206235 0.465711 
Ne 12.52737 7.1113 8.08636 0.087056 -0.040701 0.408431 
Ne 10.24385 9.37078 6.34149 -0.125136 -0.190474 -1.012102 
Ne 11.49744 10.12078 7.96272 0.335442 -0.027733 0.967684 
Ne 11.04598 13.44898 7.87638 0.263087 0.496902 0.895964 
Ne 13.26164 18.27805 7.78449 0.061109 0.828185 0.535845 
Ne 14.55949 0.27593 8.10054 -0.380063 0.02814 0.495575 
Ne 16.58226 1.57104 8.14708 -0.344273 -0.013652 0.897569 
Ne 17.6915 3.52664 8.0052 0.292089 0.218129 0.992935 
Ne 15.41367 7.36054 8.03989 -0.585298 0.079736 0.466475 
Ne 13.9254 9.38853 8.14403 0.13655 0.172655 0.332513 
Ne 13.2809 12.00962 7.88063 0.219295 0.293658 0.686792 
Ne 13.28387 14.86592 7.99661 -0.107975 -0.244657 1.03875 
Ne 15.0123 16.9506 7.94021 0.663208 -0.340128 1.282946 
Ne 16.37093 19.13796 8.04336 -0.332925 -0.056275 0.512737 
Ne 18.36127 0.01067 7.94475 0.195409 0.234449 0.456909 
Ne 19.99648 3.16524 8.00117 -0.317527 -0.758029 0.421995 
Ne 16.46728 5.3186 8.22121 -0.211 0.098334 0.730651 
Ne 16.91432 9.10435 7.73214 0.064575 0.316022 0.846551 
Ne 16.43098 11.53274 8.08185 0.629668 0.181343 1.620102 
Ne 15.68889 14.26676 7.62502 0.622576 -0.497241 1.348529 
Ne 17.48218 16.99502 7.83387 0.050809 -0.482226 0.702656 
Ne 19.89281 18.25598 7.86558 -0.113203 0.080716 0.585484 
128
lattice="20.333578 0.0 0.0 0.0 20.333578 0.0 0.0 0.0 14.0" energy=19.96261647 virial="101.07319626255752 -0.13374626784999602 4.253832202988137 -0.13374626784999602 97.68669162636431 2.9348671174485212 4.253832202988137 2.9348671174485212 72.794748127651" properties=species:S:1:pos:R:3:force:R:3
Ne 4.60665 19.86478 6.08442 0.937938 -0.148647 -0.623228 
Ne 6.26975 1.70783 5.7582 -0.043162 -0.192158 -0.388713 
Ne 3.75964 2.58973 5.87982 -0.370659 -0.070886 -0.772594 
Ne 19.77433 8.18866 6.10456 -0.113522 0.125707 -0.467493 
Ne 0.50642 11.15338 6.08124 -0.301773 -0.482359 -0.538813 
Ne 18.40449 12.20859 6.04968 0.246715 0.808 -0.960583 
Ne 0.73977 15.92021 5.92825 -0.343213 -0.491747 -1.252185 
Ne 2.67381 20.23613 6.82126 -0.443033 0.018309 0.096211 
Ne 8.84254 1.92616 6.01652 -1.165826 0.005717 -0.635005 
Ne 8.06901 3.35731 7.43753 -0.210986 -0.044271 1.175255 
Ne 5.56137 3.86849 6.14256 0.374147 0.89032 -0.736779 
Ne 3.27574 5.43846 6.10486 -0.039379 -0.04028 -0.610106 
Ne 2.78849 10.37862 6.21965 -0.254753 0.04518 -0.253428 
Ne 0.35693 13.41323 5.97761 0.259626 0.376329 -0.400344 
Ne 3.08612 17.7669 6.19347 0.328288 0.063872 -1.062255 
Ne 3.03824 15.52488 6.1652 -0.116052 -0.352593 -0.530661 
Ne 7.58989 20.11885 6.07719 0.238833 -0.05019 -0.362368 
Ne 10.42282 3.4185 6.14814 -0.133401 0.651639 -0.978162 
Ne 8.38843 4.94192 6.01701 -0.103416 0.45539 -0.851218 
Ne 3.68814 8.00566 6.19404 0.279881 0.473777 -0.743066 
Ne 1.59343 8.25035 6.0941 -0.21802 -0.191796 -0.431495 
Ne 4.80706 11.32992 6.05478 0.331034 0.14322 -0.977642 
Ne 2.97061 13.22995 5.9442 -0.223581 -0.566911 -0.710685 
Ne 5.22854 16.30876 6.14654 0.280713 -0.229833 -0.629139 
Ne 9.35642 18.25137 5.8939 0.397568 0.163252 -0.523971 
Ne 10.32501 0.50316 5.84481 0.75986 -1.095253 -0.833062 
Ne 9.98109 6.75216 6.46186 0.083264 0.143646 -0.454028 
Ne 5.61309 7.12487 5.97678 -0.129756 -1.181382 -0.735104 
Ne 6.85726 10.1176 6.36058 -0.581251 -0.047807 -1.357272 
Ne 8.4653 11.68974 6.23674 0.252755 -0.166597 -0.414782 
Ne 6.47848 13.11367 5.87476 -0.266887 -0.023387 -0.431797 
Ne 8.70693 14.04345 6.04369 0.116018 0.168663 -0.63382 
Ne 12.4125 18.20595 5.86799 -0.505562 0.041348 -0.541463 
Ne 12.41534 2.77462 6.78398 -0.321537 1.145602 -0.636972 
Ne 14.46356 2.20871 6.59339 0.934676 0.267654 -0.686784 
Ne 10.04068 9.47694 6.05078 -0.245713 -0.208588 -0.581937 
Ne 12.3751 11.61531 7.9106 0.204838 0.668766 0.777021 
Ne 11.13533 15.86009 5.81387 -0.148377 -0.025265 -0.388289 
Ne 13.65835 15.04964 6.30068 0.014351 -1.36132 -0.572014 
Ne 12.93839 0.66125 6.19265 -0.437408 -0.83993 -1.300946 
Ne 17.1256 2.74585 5.91986 -0.412995 -0.271927 -0.41395 
Ne 15.26227 5.96894 5.84902 -0.488695 0.222524 -1.092024 
Ne 12.30265 5.25793 5.88842 -0.146138 0.043896 -0.907474 
Ne 12.54038 8.19288 6.10408 -0.040214 -0.405763 -0.74993 
Ne 13.55886 12.51438 5.73414 -0.204208 0.883921 -0.492757 
Ne 16.23892 14.30599 6.01212 -0.546516 -0.552856 -0.941344 
Ne 16.77996 16.44449 6.0662 0.140875 0.604852 -0.606964 
Ne 14.3523 16.93654 5.91244 0.710663 1.216805 -0.591607 
Ne 15.40562 0.12898 5.9132 -0.871647 0.58093 -0.551991 
Ne 17.74214 5.12967 5.80434 0.075654 -0.381007 -0.413438 
Ne 17.72883 7.33425 6.12419 -0.013433 -0.075615 -0.444896 
Ne 15.9566 8.76959 5.81566 -0.511791 0.228814 -0.40428 
Ne 13.08279 10.45359 6.18704 -0.048938 -0.182728 -1.596392 
Ne 18.68592 14.73308 6.29919 -0.075951 0.175395 -0.6909 
Ne 0.99456 18.32138 5.93547 0.071959 0.586815 -0.562215 
Ne 19.29962 17.48999 5.89328 -0.91714 -0.125059 -0.360587 
Ne 16.83662 18.99539 6.05883 -0.398487 -1.016676 -1.714853 
Ne 1.46619 1.99603 6.37003 -0.08011 -0.380577 -0.785439 
Ne 20.20024 4.96772 6.51602 -0.12183 0.179507 -0.46727 
Ne 16.11265 5.41806 7.70277 0.457835 0.35665 0.997319 
Ne 18.11256 10.04057 6.10346 -0.123498 -0.525965 -0.753892 
Ne 15.69 11.52879 5.77362 0.323655 -0.158121 -0.328406 
Ne 20.2833 17.93325 8.05743 -0.875166 0.834223 0.71902 
Ne 18.80219 0.07507 5.96529 0.267035 0.389965 -0.62186 
Ne 3.78951 1.68374 7.92048 -0.376255 -0.351386 0.748247 
Ne 1.46137 6.05771 7.61069 0.115848 0.228923 0.440037 
Ne 15.85572 3.25752 7.91555 0.155672 -0.094975 0.785466 
Ne 19.38375 6.96136 8.11007 -0.025789 -0.313428 0.412863 
Ne 18.73749 9.33569 8.1486 -0.149416 -0.004541 0.720732 
Ne 17.45099 11.47769 7.84265 -0.306098 -0.156975 0.992032 
Ne 1.27344 16.37777 7.89885 1.745939 -0.12213 1.000698 
Ne 3.69022 18.23162 8.1505 0.107336 1.391215 1.186407 
Ne 6.11567 20.24451 7.99651 -0.092605 0.009644 0.428353 
Ne 5.82727 2.62062 7.98985 0.467205 -0.233781 0.784009 
Ne 0.72252 9.52294 7.90034 -0.074867 0.052015 0.435878 
Ne 4.21861 11.37603 8.15163 -1.092188 -0.043515 0.958215 
Ne 19.67105 12.85113 8.07848 -0.435306 -0.339399 0.47286 
Ne 19.89302 15.10083 8.17803 -0.233669 -0.043628 0.695405 
Ne 2.21967 14.12438 8.07736 -0.541065 0.292139 0.540349 
Ne 0.55004 20.17687 7.42363 -0.500985 0.275662 0.391886 
Ne 8.77512 20.32 8.32335 0.00124 0.345949 0.26616 
Ne 6.1237 5.23872 8.01092 0.101331 0.227908 0.303799 
Ne 3.96104 4.27712 8.01237 -0.417045 -0.115341 0.514445 
Ne 2.99354 9.0122 8.24738 0.032376 0.562343 0.609203 
Ne 1.41551 11.97277 8.05309 0.516072 -0.390828 0.446644 
Ne 6.5525 14.67051 7.63145 0.089634 0.442399 0.370155 
Ne 4.10334 16.19237 8.12042 0.23093 -0.935876 0.86867 
Ne 6.65864 18.02263 6.53563 -0.5909 0.56279 -0.006565 
Ne 8.45332 18.02294 8.00172 -0.013061 -0.1734 0.764896 
Ne 10.67207 1.73109 7.71137 -0.489614 0.196018 1.034873 
Ne 3.64578 6.90937 8.12259 -0.099277 -1.041934 0.78386 
Ne 8.12081 9.41305 7.99859 0.460743 -0.275672 0.837707 
Ne 5.56003 8.04325 8.03384 0.573115 0.557581 0.611071 
Ne 4.35294 13.78081 7.64205 0.770415 -0.135637 0.283493 
Ne 7.88818 12.78179 8.24785 0.216879 0.385186 0.682009 
Ne 7.97654 16.29679 6.20954 -0.16632 -0.26985 -0.817837 
Ne 11.26356 19.84507 7.82614 -0.265504 -0.413739 0.364838 
Ne 8.17653 6.44485 7.9338 0.014863 0.164606 0.508403 
Ne 7.46465 8.08095 6.08588 1.25641 -0.388274 -0.404118 
Ne 10.20779 10.90651 8.02783 -0.40039 -0.425212 0.668713 
Ne 6.34492 11.26036 8.03586 0.105921 0.082917 1.013339 
Ne 10.08657 13.14371 7.65506 0.525752 0.473355 0.371855 
Ne 9.2179 15.58653 7.86165 0.308479 -0.286888 0.805723 
Ne 10.95572 17.2875 7.89157 0.148137 0.127192 0.244434 
Ne 13.05778 1.38463 8.23972 0.365337 -0.435344 1.846239 
Ne 10.75178 4.58937 8.03848 -0.283272 -0.180607 0.669448 
Ne 11.92918 6.49221 7.8045 0.390255 0.115164 0.616222 
Ne 10.88559 11.72257 5.89748 0.260353 0.268637 -0.704112 
Ne 11.05263 8.56785 7.9231 -0.227574 0.25897 0.697108 
Ne 12.05994 14.73529 7.75434 -0.596284 -0.517155 0.664621 
Ne 13.49626 16.5025 8.13732 -0.560819 0.742776 0.664827 
Ne 13.44525 19.21059 7.6118 0.786753 -0.222937 0.59935 
Ne 16.38644 0.94525 7.87354 0.09277 -0.239898 0.403684 
Ne 19.36616 2.83049 6.30596 0.51763 -0.535397 -0.59772 
Ne 14.2766 7.43061 7.72476 0.188321 -0.750331 0.112424 
Ne 13.47529 9.42734 7.9173 -0.812655 -0.321087 1.512 
Ne 14.91332 12.82802 7.74067 -0.146288 0.067793 0.412825 
Ne 15.49927 15.68414 8.01741 0.359573 -0.479629 0.367718 
Ne 17.84829 16.45013 8.10767 0.309787 0.083574 0.517492 
Ne 15.96015 18.05659 8.16093 -0.421732 0.205019 0.336938 
Ne 18.85451 1.32924 8.187 0.076181 -0.013115 0.366376 
Ne 18.37394 3.96546 7.96588 -0.156733 0.264515 0.727148 