  2.5306081e-06   5.7518741e-07
 -1.3474203e-05   8.0955459e-08
  5.8286671e-05   6.9109646e-08
 -5.5682794e-06   3.4502560e-07
 -9.1977608e-06   2.0656771e-06
  6.8330532e-06   1.8693568e-08
 -4.1546386e-06   7.0055859e-07
 -1.5161086e-05   3.1148588e-06
  2.3442470e-05   8.8920564e-07
  9.9215267e-06   1.5349343e-08
 -2.1709813e-05   2.0807231e-07
 -1.9494128e-05   3.4533196e-07
  8.7509443e-06   5.6380850e-06
  7.9511192e-06   1.9542549e-06
  8.3288714e-06   1.4538868e-08
 -1.6935877e-05   2.5382562e-07
  1.4508890e-05   7.1024078e-07
  4.4345197e-05   3.3805783e-08
  1.2829789e-05   4.1294948e-07
  7.1193417e-06   8.9755434e-07
  1.6184700e-05   4.8756056e-07
 -1.9212430e-05   7.0044717e-07
  8.1803080e-08   1.4002342e-06
  6.7656420e-06   8.7704954e-09
 -8.4034300e-06   1.4131872e-07
 -1.7657576e-05   9.3113988e-09
  2.5156140e-05   6.3343811e-07
  1.2564469e-05   1.1493664e-07
  1.7393430e-05   3.1371926e-06
 -1.7149730e-05   1.2511282e-07
  2.1822275e-06   3.4674338e-06
  1.3826173e-06   2.8820974e-08
  1.3778365e-06   6.6959745e-07
 -2.2317543e-05   1.8778865e-06
 -6.6509683e-06   4.5564764e-07
 -2.3134066e-06   4.2894519e-07
 -2.0541300e-04   4.2887081e-08
  8.6491900e-06   2.4393719e-07
 -1.3230199e-05   3.4308098e-06
 -1.8964327e-05   1.0186729e-06
 -1.8423283e-05   5.7754767e-07
 -1.8278706e-05   4.9182396e-09
  1.3695046e-01   6.9192964e-08
  3.9663097e-01   2.4962591e-07
  4.8891909e-02   9.5925074e-08
  5.2261478e-01   4.8448616e-08
 -7.8945294e-02   5.6169927e-08
  1.4252871e-01   2.3847474e-07
  1.4398186e-01   1.6953624e-08
 -2.8568122e-06   2.7704122e-08
 -3.0873872e-02   1.5424433e-07
  7.2135776e-04   1.1117612e-07
  2.7521813e-02   7.2343598e-10
  1.9572724e-05   5.1450829e-08
 -2.1157111e-04   8.5270784e-08
  4.4252425e-02   4.1720899e-08
 -7.9513029e-06   1.7877247e-07
  7.6474680e-07   6.1077110e-08
  1.5178623e-05   8.3650411e-07
 -4.6372464e-01   1.7227681e-07
 -3.0081719e-05   2.8589964e-06
 -4.9743443e-03   7.1641574e-07
  3.7673221e-05   5.4938914e-07
 -1.2400197e-05   1.7124798e-07
  1.6668037e-02   1.6333139e-07
  2.5307704e-06   2.2641635e-07
 -5.7086090e-06   1.0190575e-07
 -2.3409062e-05   1.0226130e-07
  4.5393468e-03   9.1048697e-09
  1.3638279e-04   8.9957368e-08
 -5.7317570e-06   5.8730041e-07
 -7.4078566e-06   1.2378628e-07
 -9.1356467e-03   2.3867804e-07
 -7.2506860e-05   2.2979265e-08
 -2.6753760e-06   1.3507820e-08
 -3.5666784e-05   3.6275438e-07
  1.7777462e-05   4.1687485e-07
  3.1185298e-06   2.1753858e-06
  1.4379976e-05   3.7954133e-09
 -8.4223557e-06   4.3027453e-07
  9.7812572e-06   1.8374250e-06
 -1.7186590e-05   4.2158996e-07
 -4.2491620e-06   6.1063071e-07
 -5.6760032e-06   3.3597253e-08
 -3.6620717e-02   2.2038400e-08
  4.4963342e-01   1.3233177e-08
  6.4666820e-01   1.5700008e-08
  2.0027560e-01   1.1416658e-08
 -4.1369505e-02   3.6787580e-09
 -4.5126323e-02   1.3144598e-08
  2.8594151e-01   2.0682931e-08
 -1.8593033e-06   4.0035747e-08
  8.7443799e-02   1.5349237e-08
  7.9963446e-02   1.1702973e-07
  1.1733772e-01   3.4723669e-08
  1.1125074e-05   4.2283352e-07
  1.0567135e-01   1.3636456e-08
  5.5230729e-02   3.9895045e-08
 -2.2195974e-05   6.1539850e-11
 -1.1451586e-04   8.0407553e-08
  1.3078715e-05   1.0848149e-07
 -2.6261309e-01   2.1923992e-07
 -6.4130968e-06   1.4281950e-08
 -6.6592596e-03   3.1218981e-08
 -5.3504575e-04   1.1954867e-07
  2.5042644e-05   3.0189387e-08
  5.9243745e-01   2.1686607e-07
  7.1116042e-01   3.5543572e-08
  2.2828077e-01   8.6175369e-08
  2.8182167e-06   8.1259714e-07
  4.4220501e-01   1.6057272e-07
  1.1829758e-02   5.1261164e-08
 -1.6965432e-05   3.6688820e-07
  6.6095077e-02   2.4090212e-07
 -2.3710608e-04   3.3227960e-07
 -3.5035512e-06   4.0431765e-09
  1.1555925e-04   1.5756490e-07
 -2.7747003e-06   4.4689990e-08
 -2.4584449e-05   3.1704576e-07
  4.3737688e-05   2.9045077e-06
  5.2594214e-06   2.4132905e-09
  1.6012682e-05   1.6453683e-08
  5.1009316e-05   2.2502124e-07
 -1.1184762e-05   1.2012057e-06
  6.0956622e-06   3.8873125e-07
 -1.1128552e-05   1.4282048e-08
 -2.0418754e-02   6.8656831e-08
 -8.0147909e-04   9.3326904e-08
 -1.5524526e-01   8.8291872e-09
 -3.9898834e-01   4.0710884e-08
  7.7659823e-02   7.0663591e-09
  2.0024270e-01   2.2458671e-08
 -2.9417282e-01   6.5162702e-08
 -1.3981355e-05   2.9078423e-08
  2.2285436e-01   8.5444452e-09
  3.7373964e-02   7.8082628e-08
  3.0699584e-01   9.3237539e-08
  1.6187598e-05   1.2142995e-07
  1.6391714e+00   1.0472112e-07
 -4.2379912e-02   1.1275046e-08
 -2.3534059e-05   3.0225162e-06
 -3.2195650e-02   3.8002722e-07
 -4.4710108e-05   2.6609641e-07
  8.0665726e-05   2.6083833e-07
  8.6141063e-06   3.9235484e-08
  2.4475828e-05   3.8585497e-08
 -1.9641550e-01   3.5974944e-07
  3.0101482e-05   2.5993878e-09
  1.2073697e-01   7.9327451e-09
  1.4915748e-02   8.3823998e-08
  2.6522303e-01   9.3279340e-08
 -3.8746080e-06   3.0745139e-07
  3.2589406e-01   2.6923523e-08
 -2.7584283e-05   3.9464743e-07
  8.2993456e-06   7.4945842e-07
 -6.0072750e-01   1.4341774e-07
 -3.2559630e-01   3.3933421e-08
 -2.9275000e-01   2.9686714e-07
  1.2615653e-05   6.8714274e-09
 -7.1428454e-01   1.8711636e-07
 -3.7528712e-02   1.1790130e-06
  5.6706514e-05   1.8326062e-06
 -2.2839434e-07   6.1555693e-07
  4.1653946e-04   1.9752314e-07
 -1.2229860e-05   3.4644393e-07
 -2.3789957e-05   1.6735461e-06
 -3.2351600e-05   5.3785124e-07
 -1.8705889e-05   1.6213050e-07
 -8.3698821e-01   1.0471156e-07
  1.1000791e-05   9.8865421e-08
 -2.3321889e-01   3.5956214e-09
 -3.5009626e-01   3.3676887e-08
  5.3125206e-02   4.8655213e-08
  1.8361460e-02   1.2552793e-07
 -1.8128385e-01   2.3517583e-08
 -1.0445990e-05   2.2443902e-07
  2.1700370e-01   2.7538603e-09
 -1.4551324e-05   2.0158119e-08
  4.9393843e-03   4.3790294e-08
  7.3317879e-06   3.6229324e-07
 -9.5764706e-05   3.9998577e-07
 -1.3931295e-02   9.4725443e-08
  2.2171454e-05   1.4990753e-09
 -2.2915952e-02   1.1902102e-07
  1.8256003e-06   4.5816415e-07
  1.1039642e-01   3.7128294e-07
  6.3489424e-05   8.4526931e-08
  8.4863394e-05   2.3102685e-07
 -3.8726357e-05   2.9843449e-07
 -3.8767168e-05   1.0670043e-06
 -2.6651787e-02   3.2324067e-08
  1.3767122e-05   5.8720147e-08
  4.9511575e-05   1.4385691e-07
 -2.1942573e-05   9.2922299e-08
 -2.3957617e-03   2.3679468e-07
 -1.4374027e-05   4.3193569e-07
  2.8396789e-05   6.6760907e-07
 -2.4860309e-02   2.7407395e-07
  5.1633879e-06   1.5069543e-07
 -8.9559762e-04   9.9929451e-08
 -6.8973154e-06   4.9305947e-07
  3.9908273e-06   6.5462984e-08
 -5.1045488e-05   7.8791331e-08
 -4.1082649e-06   1.2813638e-07
 -7.0033007e-06   1.1882024e-08
 -3.4121203e-06   2.3163332e-06
  1.5625532e-05   6.5742461e-07
  3.3387121e-05   2.9117316e-06
  4.3398846e-05   3.6185882e-06
  1.3558601e-05   9.7611337e-07
 -8.1721789e-01   1.9889897e-07
  5.1862506e-05   2.4167477e-07
 -2.2849859e-01   5.3656130e-08
 -8.3167806e-06   2.9007813e-08
  1.2640953e+00   1.3702939e-07
 -1.3450410e+00   1.1722268e-08
  6.1816681e-06   3.3741504e-08
  3.8585891e-05   1.0765563e-06
  8.5268468e-02   9.7382696e-08
 -3.6575339e-06   1.0251269e-07
  5.4178923e-05   4.0252112e-07
 -3.3024062e-05   1.2496542e-06
  8.3686340e-05   1.4090111e-07
 -2.0165438e-05   1.4334816e-07
 -2.6657981e-06   2.9364386e-07
 -3.6908761e-05   2.0900107e-07
 -3.6889660e-06   4.3358054e-07
  2.9709138e-06   3.4306595e-07
  2.2339191e-05   2.6541284e-06
  5.7273137e-05   1.3616639e-08
 -3.0254081e-05   8.2805582e-07
  7.3311912e-07   1.8852252e-06
 -2.3074237e-05   5.7819591e-07
  3.7359578e-06   3.1973050e-07
 -2.1405631e-06   3.1508208e-07
 -5.9019167e-06   9.3647321e-09
  6.3539251e-06   3.8286611e-08
 -5.1344738e-05   4.0126346e-07
  1.0545428e-05   1.5997766e-07
 -7.6962993e-07   7.2442651e-07
  3.0353014e-05   6.7129051e-08
 -3.2102075e-06   4.0233044e-08
  1.1315708e-05   3.1614140e-06
 -1.0228714e-05   1.4185538e-08
  2.9796267e-06   4.7500819e-07
 -8.3479326e-06   1.7431624e-07
  8.0326545e-06   2.7993144e-07
 -5.8567843e-05   3.8334900e-07
  2.0717685e-05   1.6099913e-09
 -1.0395645e-05   4.3219885e-07
  4.6610130e-06   9.2389467e-07
 -2.3720829e-06   3.3838094e-07
  4.9903294e-05   9.8032949e-08
 -1.4168961e-04   9.8009832e-07
  8.4183834e-05   4.8907260e-08
  5.0095052e-05   4.9542528e-08
  7.4278978e-05   6.4200401e-07
  9.5500720e-05   4.5298652e-08
 -1.8911174e-05   6.0465430e-07
 -7.6782726e-06   1.0447237e-06
  1.1833620e-05   1.7034149e-06
 -2.7628825e-05   1.5672542e-07
 -3.2793509e-05   1.2484840e-06
 -1.0103631e-05   2.5090330e-06
  7.9243209e-06   6.7316398e-07
 -7.6759288e-06   3.6565592e-07
  6.0598891e-06   3.8357779e-08
 -5.2138071e-06   4.1868379e-06
 -5.7237648e-06   1.1124209e-06
  4.7159960e-05   1.0909991e-08
  1.1512314e-05   1.9924305e-06
  1.8654044e-05   3.7781972e-06
 -7.3868059e-06   1.0487953e-08
  2.3006182e-06   2.4874745e-07
 -1.6406690e-05   1.8536437e-07
  4.5918197e-05   6.9425687e-09
 -1.3484284e-06   1.2430966e-06
  1.9158806e-05   1.4397067e-07
  3.7918817e-05   1.1882698e-06
  1.6075426e-05   2.4687552e-07
  6.1386359e-05   1.3548230e-07
  3.2832650e-05   1.8387361e-07
 -1.7818595e-05   4.5194068e-07
  4.1459698e-05   1.2474403e-06
 -1.7861621e-05   3.5501828e-06
 -1.6283473e-05   5.2660125e-09
  1.7348631e-05   6.7334190e-07
 -1.6823317e-06   6.7711460e-07
 -1.0251870e-07   2.8782333e-06
 -9.5091173e-06   9.9057779e-06
 -7.6869787e-07   3.3228397e-07
 -1.0101312e-05   5.9894461e-08
  8.6533491e-06   1.7637739e-06
  2.6654382e-06   9.5215732e-08
 -1.2831499e-05   5.4504216e-07
  2.5488824e-05   9.9974642e-08
 -8.2190900e-06   1.2092928e-08
  1.3304543e-05   3.7864667e-10
 -8.9414671e-06   8.0628901e-08
  1.2259163e-05   2.9282937e-06
 -1.6048170e-05   2.7381455e-07
 -9.5282549e-06   8.6150175e-07
  8.4041294e-06   1.5325601e-06
 -1.1879494e-05   6.9683563e-07
 -6.6502900e-05   1.7595391e-07
  1.9439949e-05   2.0589907e-06
  1.9224934e-05   9.3842857e-07
 -1.3214780e-06   3.3090730e-06
  5.9884414e-06   4.0576003e-07
 -1.4938566e-05   4.1976705e-07
 -6.1003075e-06   6.0585404e-07
 -5.2350351e-06   3.3302875e-08
 -2.0522637e-06   1.0656914e-06
 -2.8088392e-05   1.3928899e-07
 -3.8432167e-06   2.0672551e-06
 -1.0463957e-06   1.1010823e-06
 -4.2894612e-06   2.1965604e-07
 -1.2602947e-05   1.9706690e-06
 -6.2019461e-07   2.1280259e-06
 -1.9313242e-05   2.9948971e-08
 -4.1679941e-06   2.4666701e-08
  1.0481200e-05   1.1630087e-06
  9.9638864e-06   9.8798682e-07
 -1.0245390e-05   1.2057588e-07
 -3.1539337e-05   5.8439639e-07
  4.0844316e-06   1.0858071e-06
  1.6511932e-04   7.8061197e-07
 -2.8187722e-05   1.7634896e-07
  2.4415822e-05   1.1215278e-07
 -7.9056172e-06   3.2409846e-06
  4.0749196e-06   4.0023965e-06
 -3.2747670e-05   1.1662039e-06
  2.6079113e-06   7.4137212e-08
  2.3678704e-05   1.6925320e-08
 -2.7819767e-06   1.4017957e-06
  1.1560555e-05   1.2285235e-08
  3.2219760e-02   1.7977488e-08
  9.1478508e-03   4.9249388e-07
 -1.8577205e+00   2.5473580e-07
  4.0162551e-05   2.4447216e-08
 -1.8797609e-01   1.3504856e-08
  1.0834341e-03   2.3946738e-08
  1.1438295e-04   7.7219156e-08
 -4.5065080e-06   4.0240997e-07
  6.2394515e-03   4.0686754e-07
  1.7982934e-06   5.6516547e-09
 -2.1484610e-01   4.1079380e-09
  5.3660319e-06   3.1768889e-06
  2.4230771e-03   1.9503132e-07
  3.6719132e-02   1.9892883e-07
 -1.8920362e-06   1.1725185e-08
  4.9051018e-03   1.4755510e-06
 -1.2679298e-05   7.0136949e-08
 -3.9615693e-06   3.3420978e-08
 -8.1132066e-06   1.5134404e-07
  1.3577509e-04   1.7477138e-08
  1.7995336e-07   1.2094599e-09
  9.9835352e-06   3.1560612e-06
 -1.2668678e-05   2.2714715e-07
 -6.5860127e-07   1.8355538e-06
 -6.5223263e-05   1.2469127e-07
 -8.5430602e-06   9.1469013e-07
  2.7212573e-03   2.5414994e-07
 -2.8734517e-05   7.1862286e-07
 -3.8258361e-07   3.1980312e-07
 -1.9728921e-05   4.3782746e-09
 -2.0688665e-05   9.2168456e-08
 -7.3899823e-06   1.2845540e-07
  2.3233968e-05   4.1499316e-08
 -4.9780806e-06   4.9565596e-08
 -6.3125094e-06   1.2039517e-06
  1.1144013e-05   4.0517234e-06
 -1.4816375e-05   4.3539972e-06
  2.6693199e-06   3.8375422e-08
  1.7313709e-05   7.6795067e-07
  2.0602192e-06   6.8726678e-08
 -1.0195264e-05   2.3785159e-07
 -2.1885093e-07   9.0366882e-07
 -2.9672220e+00   9.8372892e-09
 -2.0378208e+00   2.6797235e-07
  1.9538243e-01   5.2375089e-08
  1.1597826e+00   6.0993997e-08
 -7.4061893e-02   2.2929393e-08
 -1.6863702e-01   5.4651021e-08
 -2.2766871e+00   3.8186720e-09
  5.0053623e-04   5.2752182e-07
  1.6930243e-01   5.1273037e-08
  2.6657898e-02   9.4440814e-08
  4.3409120e-02   2.3964184e-08
 -1.1216742e-05   4.4370159e-07
  9.0547860e-02   1.5066449e-07
 -1.4123853e-01   4.1860040e-09
  7.6919747e-07   1.4288728e-08
  3.0403949e-05   9.4774421e-08
 -4.1897483e-02   7.3983990e-08
  3.4227815e-01   9.5917805e-08
 -5.3226409e-05   5.5979700e-07
  7.5621688e-06   1.4503128e-07
  1.1991109e-05   2.6133779e-07
  2.6236858e-06   8.1313260e-07
 -7.7406719e-02   2.4804103e-07
 -7.0737995e-02   2.8391426e-07
  2.1428391e-03   4.4556632e-08
  8.7879762e-06   5.2344319e-07
 -5.8352150e-02   7.0312822e-08
 -6.3933589e-06   2.6231942e-07
 -2.7592885e-06   2.3491989e-08
  1.3328789e-05   6.0794690e-07
  1.1124279e-03   5.4228377e-07
  2.8492275e-04   4.0366734e-07
  3.9856047e-07   1.0382146e-08
  3.1865904e-05   6.4001302e-09
  3.5640826e-06   2.7288443e-06
  2.7105070e-06   3.1541740e-07
  6.0227567e-06   2.8711902e-08
 -1.1798747e-05   3.5917975e-07
  5.1107463e-06   3.5978513e-07
 -3.6922800e-05   2.1954545e-08
 -3.9634189e-05   1.4602166e-08
  4.7738904e-06   5.1581560e-07
  6.3082802e-01   1.0328999e-08
 -1.6771360e-01   5.5034459e-08
 -6.3118942e-02   1.0129061e-09
 -1.4015402e+00   1.6355775e-08
 -6.7027062e-01   8.5852248e-10
  1.1459890e-02   4.0782466e-09
 -7.3233682e-01   3.7401833e-09
  3.7600997e-01   1.9894287e-07
  7.3282772e-01   6.8817960e-09
 -7.9954380e-01   3.7941032e-08
 -9.0942949e-01   1.1227817e-07
  8.4737420e-02   1.2448847e-07
 -6.6325551e-01   3.3488519e-08
  1.4117204e+00   1.0565567e-07
  2.5698555e-05   9.2582773e-08
 -1.6215686e-02   1.9454363e-07
  5.9794041e-04   1.7229743e-08
 -2.1084764e+00   2.0639826e-08
 -5.0276473e-02   1.5193172e-06
 -1.3282174e+00   5.2892116e-08
  1.3104236e+00   4.0392314e-07
  1.8869774e-01   1.4197329e-07
 -6.4025104e-01   1.1191720e-08
 -1.4012821e+00   1.7548599e-07
 -1.2141795e+00   6.5478936e-08
  1.8643019e-05   6.0189387e-07
 -1.2529132e+00   7.5806135e-08
 -9.2599255e-01   5.2819320e-08
 -5.7265483e-05   3.2470581e-08
 -8.4875858e-01   3.9495015e-07
 -1.4301496e+00   2.5917325e-07
 -8.5361910e-01   1.3531190e-08
 -5.4430875e-06   7.2578210e-08
 -9.0748531e-01   4.6984919e-08
  2.4051400e-01   3.0923292e-08
 -2.9585790e-05   2.6486275e-06
  7.1817500e-05   4.0732043e-06
 -2.2423195e-05   8.8512456e-07
 -1.3108152e-05   9.8672970e-08
 -2.8321749e-05   6.6325219e-07
  4.5333009e-06   1.5398597e-07
 -1.7559854e-05   2.6888731e-08
 -1.0275293e-05   2.4227356e-08
  6.9785046e-06   5.7068655e-07
 -4.9961340e-02   2.1234925e-08
  1.3998963e-05   1.2703198e-08
  8.5689063e-04   1.1908300e-07
  1.1557543e-04   7.0815297e-08
 -3.9198916e-02   2.2273443e-07
  2.2848400e-05   4.9523633e-06
 -1.4035737e-05   4.2625694e-09
  1.1107971e-05   2.6154902e-07
 -1.4559334e-05   5.4057551e-08
 -5.3196463e-06   4.2962233e-07
  9.9456138e-06   7.0092130e-07
 -4.7198864e-07   8.5139214e-07
 -1.0468194e-06   2.6776956e-07
 -1.7633654e-06   6.3768418e-08
 -3.1499963e-05   1.8015658e-07
  1.0519384e-05   6.4873895e-08
  1.5357196e-05   2.9266030e-06
  4.5056637e-05   5.2109021e-07
 -1.0187146e-05   2.1666244e-08
 -6.4166820e-06   1.8960254e-06
 -2.6757512e-05   6.9132903e-07
 -2.9035057e-06   3.6510383e-07
 -2.0552125e-05   1.0557256e-06
 -3.7822134e-05   2.8660984e-06
 -3.1069380e-06   4.9354874e-08
  2.6330605e-05   2.5818409e-07
  1.7964743e-05   5.3421687e-08
  1.8335937e-05   4.8876655e-07
 -9.3640965e-06   9.2495782e-07
 -1.9966348e-05   2.3200000e-07
  4.1978754e-05   6.9885836e-10
 -5.2480908e-07   3.1111256e-07
 -6.9228449e-06   1.3421943e-06
 -3.8567750e-06   1.9447715e-07
 -1.0917584e-05   3.2791483e-08
 -5.1167070e-05   3.4868648e-07
 -4.1300165e-05   1.9925405e-06
  1.9958872e-05   4.3410319e-06
 -3.7108537e-06   8.8610754e-09
  1.3771970e-04   1.6155354e-08
 -9.6974649e-02   3.6417269e-09
 -1.7543834e-01   6.2748519e-08
 -2.6688218e-01   6.3914570e-08
 -6.5063334e-01   6.9167765e-09
 -1.0157740e-02   2.9039356e-08
 -1.0724987e+00   3.3536098e-09
  6.1979306e-01   5.6632963e-08
  5.5850418e-05   7.8611428e-08
 -2.3678897e-01   1.7729134e-09
  2.3555725e-05   1.0810280e-07
 -1.0778666e-05   6.4714965e-07
 -2.9531623e-06   3.5513600e-07
 -2.8640285e-01   5.1678879e-09
  5.3391932e-03   6.8256469e-08
 -1.2711424e-05   5.9635397e-07
 -5.3970716e-06   2.6492285e-07
 -5.5594548e-05   1.9970531e-07
 -1.0250089e-01   6.6667219e-08
  1.5161263e-05   1.0543543e-07
 -7.2938427e-02   4.1451241e-07
  3.1808093e-05   2.2408102e-08
  6.3496796e-06   5.9180741e-07
 -2.3412039e-03   5.3285373e-07
 -1.9624909e-02   2.6208363e-07
  1.4382698e-06   7.8068445e-07
  1.8188388e-05   4.9693781e-06
 -1.4486034e-01   5.5252798e-08
  7.4693799e-04   1.1837076e-06
  2.1695188e-05   1.7342762e-06
  4.0529013e-04   6.8861982e-07
  1.6674867e-06   1.0281294e-08
 -2.7606545e-06   7.1356915e-08
 -9.1681744e-05   5.8216671e-08
  4.8912487e-05   1.8049226e-08
 -1.2253095e-06   5.1520992e-08
  1.7944145e-05   1.6405268e-07
  1.6596165e-05   9.0213007e-08
  4.0245100e-06   1.8696599e-07
  3.5875594e-06   1.5160063e-07
 -5.6213958e-06   4.1809639e-07
 -2.8232380e-06   1.3186465e-07
 -9.3654253e-06   9.1921393e-08
  1.5014015e+00   1.0087611e-08
 -9.5855033e-01   8.2458274e-07
  3.5791209e-01   2.2698822e-08
  5.5106688e-01   1.5719738e-08
 -1.2174237e+00   2.3894041e-08
 -6.5077347e-01   6.8891253e-09
 -6.2739933e-01   3.1807108e-08
 -3.7481966e-06   8.0712823e-07
  4.4456297e-01   1.8516255e-07
  3.7374565e-01   4.7726015e-08
 -8.8849902e-01   2.5399723e-07
  1.5854738e-06   6.9762001e-07
  9.4804072e-01   2.5309637e-08
 -2.0196076e-02   2.5039503e-07
  8.6681663e-05   3.1189018e-07
  8.1239250e-06   9.2072258e-07
 -7.7397626e-06   5.2743836e-08
  5.8385569e-01   1.0566567e-07
  3.2325337e-05   8.9826744e-07
  1.0979475e-04   4.8517796e-07
 -8.3697843e-05   3.6231496e-09
 -8.8574707e-06   3.5359145e-07
 -3.1188291e-02   5.4503367e-08
  9.6792392e-05   3.7208474e-09
  1.8027746e-05   1.1334631e-07
  5.5119121e-06   1.8324197e-06
 -2.1437112e-05   1.7567659e-07
 -3.7607688e-02   2.3271960e-07
  8.4362691e-06   8.2874529e-08
 -2.8433717e-05   2.6400048e-07
  2.0945612e-05   3.5733657e-07
 -5.2287446e-06   8.2806217e-08
  2.4277040e-06   4.3704558e-06
 -2.0641586e-05   7.5804607e-08
 -2.1330230e-05   3.0546914e-07
  4.6703981e-06   2.6332107e-06
 -1.2383355e-05   3.3033475e-06
  8.9607611e-06   2.4726326e-06
 -6.5706750e-05   7.7734448e-08
 -1.3820697e-05   4.9133923e-06
  9.1168965e-07   1.5155697e-06
  4.0834238e-05   3.2206515e-07
 -1.6483218e-05   1.4922344e-07
 -6.5336502e-07   1.0762991e-06
  3.3684184e-05   8.2463089e-08
 -6.3810162e-06   2.2884784e-07
  3.4761983e-05   5.2700493e-06
  1.0409994e-05   7.1985660e-08
  6.5316372e-06   1.8365308e-06
 -4.7801987e-06   1.7487602e-07
 -5.6156350e-06   5.3706614e-08
 -2.4832611e-06   2.1284070e-07
 -5.8941760e-06   6.9641969e-06
  1.8320673e-06   1.0487836e-06
  5.2856820e-05   8.5282988e-07
 -7.0457975e-07   1.0633672e-06
  8.3646528e-06   2.3389634e-07
  3.8522759e-07   2.0018328e-07
  4.9850009e-05   1.7291562e-09
  3.4526913e-06   5.9069077e-07
 -1.8440775e-05   5.0845404e-07
 -1.4510177e-05   6.8465368e-07
 -4.5510176e-05   5.8480526e-07
  4.5578263e-06   3.8684907e-06
  3.9542338e-06   9.3030729e-07
 -3.4385583e-05   6.0108255e-07
 -2.5004957e-07   5.0430774e-08
 -2.0172385e-05   1.6192597e-07
  8.9232053e-06   2.3918755e-08
 -1.9906796e-07   5.1272423e-06
  5.6010642e-05   5.1768336e-07
 -3.2824752e-05   1.0851875e-07
  1.0614236e-06   1.3334991e-08
 -2.1861988e-06   1.9322886e-07
  1.0962363e-05   5.0211548e-07
  2.1839121e-05   2.7530714e-06
 -4.1978460e-06   7.2117820e-07
 -1.0680612e-05   7.5597194e-07
  2.0724945e-05   2.5813515e-06
  2.0781121e-05   6.9976895e-06
  3.6262063e-05   1.9792546e-07
  1.9241847e-05   5.4825495e-09
 -4.5418114e-05   2.8456375e-06
  1.3507084e-05   1.7253713e-07
 -1.2838171e-01   5.2608518e-09
 -1.6023638e-02   2.1718655e-07
  4.1654119e-01   5.9502934e-08
 -1.8465978e-01   1.0774652e-07
  2.1777523e-03   1.3230645e-07
 -2.4609984e-05   9.8796932e-08
 -2.4611073e-02   2.0564743e-08
 -2.8702505e-05   1.6477334e-06
 -2.3568065e-03   1.5200262e-08
 -4.7925283e-04   1.1823268e-08
 -2.5511941e-05   1.1963040e-07
  3.5274156e-06   1.0250275e-07
 -1.0812122e-05   3.7043048e-08
 -6.9679646e-03   1.3544981e-07
 -1.8961789e-06   3.5929267e-07
 -4.0644300e-06   4.7098787e-09
 -4.4050194e-07   2.8906595e-09
  7.5888322e-03   8.4011407e-07
 -4.1104531e-06   1.3462142e-08
  2.2570975e-05   3.7375852e-08
 -4.0830753e-05   7.9608429e-07
 -3.6429888e-06   4.9870170e-07
 -1.2470804e-03   6.3041917e-08
  9.2759392e-06   2.2964328e-07
  2.6798212e-05   2.5643233e-08
 -7.3696083e-06   1.9583734e-07
  7.4772852e-06   1.5499963e-07
  8.3226286e-04   3.5221191e-08
  2.5451873e-05   1.6046254e-06
  2.6174843e-07   8.3267587e-08
  4.9747501e-05   1.2591615e-07
 -5.9225163e-06   6.7432218e-08
 -1.3719268e-06   2.8162697e-07
 -6.9825696e-06   5.1097700e-08
  1.5832675e-05   1.0001617e-10
  1.0688011e-05   7.4675364e-07
 -5.2284422e-06   9.9786780e-07
  1.6505537e-05   4.9466826e-07
 -2.3491004e-06   6.4136096e-08
 -9.1020547e-06   1.0026448e-06
  1.4259822e-04   1.2227574e-07
  3.3408319e-06   2.9082136e-07
 -1.8710317e-02   3.9132644e-09
 -5.8335017e-02   4.0003151e-08
  9.0578879e-04   6.9024551e-09
  1.0103658e-02   1.1027981e-09
  5.1799040e-02   4.4023327e-09
 -7.0556640e-03   2.6084788e-09
 -9.3488246e-02   1.7280344e-10
  1.1545340e-01   4.4460883e-08
  1.0599610e-02   3.6662304e-09
 -2.1025704e-02   1.3981496e-09
 -3.4424219e-02   3.2934113e-09
  2.2986142e-01   6.6280328e-09
  3.0021430e-03   7.6204270e-09
  3.0297780e-02   4.0495007e-09
  8.8524133e-01   6.0875624e-07
 -4.0932126e-02   8.7368676e-08
 -9.0487823e-02   1.1673993e-08
  3.2888401e-01   3.3909882e-09
  1.4711255e+00   5.6114842e-09
  6.9134742e-01   3.5703127e-10
 -2.7969402e-01   1.5862936e-07
  6.2563461e-01   8.2299010e-08
 -4.5604415e-02   3.3341101e-09
 -1.1133241e-02   1.3462573e-08
  1.8576797e-02   1.0617734e-08
  7.4374497e-01   4.0767635e-08
 -4.0133551e-02   1.3906604e-08
 -4.6227325e-02   3.3020633e-08
  1.4645976e+00   7.4258935e-08
 -5.0567884e-02   1.0453840e-08
  1.4530776e-01   3.3408674e-09
  1.4879485e-02   3.5005492e-08
  1.3042781e+00   1.1792036e-07
  1.0536323e-01   2.9811385e-08
  6.0145956e-01   2.0888594e-07
 -2.4917023e-02   1.6550370e-06
 -5.1032931e-01   2.2482314e-07
  1.7507151e-06   6.4618767e-08
  6.9701369e-03   3.4525365e-07
 -7.4425552e-05   5.5184859e-08
  5.6804973e-01   2.1097494e-08
  7.8371686e-01   7.0567523e-07
  1.0941786e-05   6.2996534e-08
 -5.6130589e-06   2.7991862e-07
 -8.1247352e-05   3.1648742e-08
  1.7350408e-07   2.7635927e-08
 -1.1268852e-05   1.9484315e-07
 -8.6114591e-07   6.3215211e-08
  1.0874371e-05   1.7256747e-06
 -5.0686602e-05   5.9747279e-08
  3.6093379e-06   3.0699380e-06
  4.5379729e-06   4.9483273e-08
 -4.1229205e-06   6.5660356e-07
  1.4048768e-05   8.8227642e-07
  3.4265202e-05   3.4471100e-07
  4.9226295e-05   2.1529595e-06
 -7.8434514e-06   1.9639090e-06
  1.8967964e-06   1.3052072e-07
 -5.8975324e-06   1.0931051e-06
 -1.0832230e-05   2.8875704e-07
  6.9643975e-06   5.1117291e-07
  2.7211190e-06   9.6705570e-08
  2.5104539e-05   7.6556098e-08
 -2.2015884e-05   4.3684693e-07
 -1.3240957e-05   2.2664942e-06
 -2.4072899e-05   3.2465030e-07
  2.3064395e-06   1.1032904e-06
 -5.4227858e-05   1.9249492e-07
  2.2171602e-05   2.9622609e-07
 -2.9311468e-06   1.6644609e-06
  3.1636373e-05   6.7355222e-07
 -4.1343706e-06   4.7846022e-08
  1.7041230e-06   2.5409267e-06
  3.1443280e-05   1.6157709e-06
  2.2669740e-06   1.4426875e-07
  5.3045820e-05   3.0716274e-06
  5.5839591e-06   6.1559001e-07
  4.3176300e-05   3.3527995e-06
  1.3359791e-06   5.4896424e-07
  4.0791052e-05   4.8933806e-08
  2.0699888e-05   1.6737349e-06
  7.5342741e-06   4.4262811e-07
  2.6560823e-05   5.5401631e-07
 -1.5288046e-05   3.1153851e-07
 -9.4370444e-06   4.2691927e-06
  2.5860856e-05   3.1525078e-06
  4.0338506e-05   9.5638552e-07
 -4.6114947e-05   1.2307211e-06
  3.8902985e-07   2.4398699e-07
  2.2591071e-06   2.5760428e-07
  8.8177399e-07   9.7875647e-07
 -4.7366451e-05   6.6440020e-07
  2.0781405e-05   4.1575408e-06
 -7.9708961e-06   4.6372206e-06
  1.1836596e-05   2.2460169e-06
 -3.8933154e-06   9.2891185e-08
 -1.6104579e-05   3.2748267e-07
 -1.2079950e-05   8.8365075e-09
  2.4943245e-06   5.5975113e-07
 -3.6371332e-06   3.7390635e-08
  6.3095968e-07   8.6136479e-06
 -7.2763164e-06   8.4053872e-06
 -9.8575674e-06   3.9586052e-07
 -1.8346175e-06   1.4781642e-07
  7.6987641e-07   1.9276904e-06
  4.5293214e-06   1.4745661e-06
 -1.3004938e-05   7.4138421e-07
 -2.5340067e-05   6.2094330e-08
 -1.9647296e-06   4.6652988e-07
 -1.2721417e-04   1.8513761e-09
 -3.6899660e-06   8.0582407e-07
 -6.2808640e-06   3.4573627e-06
  1.0431228e-05   8.5068010e-08
 -2.7042628e-05   3.2589160e-08
 -7.1231070e-06   2.6631113e-07
 -1.8696344e-05   1.2115467e-07
 -2.8743862e-05   1.0211940e-06
 -1.1290964e-06   3.6308410e-07
 -4.3955933e-07   7.2244070e-08
  1.6385451e-05   3.3711906e-08
  6.6597040e-06   2.3968696e-06
  1.5511763e-05   4.1314775e-06
 -1.9761264e-06   5.5685859e-06
  2.5211491e-06   3.7878399e-07
  1.4706839e-05   1.3510336e-06
 -7.7100103e-06   2.9701182e-06
  2.8359193e-06   4.7299227e-07
  1.7444805e-05   1.0102138e-08
 -2.1467887e-01   7.7087648e-08
 -3.7672853e-05   7.8203264e-08
  1.7445663e-02   4.7078100e-07
  1.5941972e-05   9.0486324e-08
  1.6536751e-05   4.0309445e-07
 -1.8446990e-05   1.2177968e-07
  7.9967604e-06   4.9413099e-08
  2.1233320e-05   7.2416704e-08
  7.9564270e-06   1.3779230e-08
 -1.0741951e-05   1.4387132e-06
 -1.5071796e-05   8.3217742e-08
 -1.0803757e-05   3.7204725e-07
 -2.3605389e-05   1.0436536e-07
 -6.7046235e-06   5.9699289e-07
  2.1778114e-05   2.1958376e-06
  3.1250042e-05   5.3390266e-08
  3.1319774e-05   8.2362988e-07
  2.3687036e-05   5.6541072e-08
 -3.5124951e-05   5.4435060e-07
  8.3711245e-07   9.0036696e-07
  6.4795108e-06   7.6881278e-08
 -5.6422305e-06   4.4653453e-07
  1.0654437e-05   6.4740385e-07
  3.3388591e-07   2.9725147e-08
 -9.7937379e-07   1.5951902e-06
 -5.7404549e-07   2.5984482e-07
 -7.8379353e-06   6.3380554e-07
 -9.7058146e-06   1.3132911e-06
 -8.0998207e-06   5.1121849e-09
 -1.1363568e-05   7.3312640e-07
 -8.2847182e-06   2.4533470e-06
 -2.5025265e-06   1.7623648e-06
  2.3111259e-06   1.9822780e-06
 -2.8296154e-05   4.8435675e-07
  1.1442384e-05   1.0013401e-06
 -2.7413224e-05   2.5807549e-07
 -6.9215830e-06   2.9905591e-06
  4.3143405e-07   1.1034550e-07
 -1.4130821e-05   7.3121775e-08
 -3.3500801e-06   2.2938086e-07
  7.0727151e-06   1.0584602e-06
 -1.8852923e-05   6.4178529e-08
 -2.5704483e-06   7.9669269e-07
  1.3657092e-06   5.5699893e-06
  2.1682047e-07   3.6691740e-06
 -3.5251946e-05   5.2840755e-07
  3.0269032e-06   1.6274717e-08
  1.0328567e-05   7.6343127e-08
  3.3863921e-06   3.9257075e-06
 -8.5897254e-06   2.2404583e-06
 -4.9738315e-05   6.1129191e-07
  1.0985530e-05   1.7724710e-07
 -3.9879833e-06   1.7338865e-08
  1.5775291e-06   4.8084896e-08
  6.2949017e-05   1.8668396e-06
  2.5867712e-05   4.0904595e-07
 -1.5174011e-06   6.4171155e-07
 -1.6856167e-05   1.7061841e-09
 -3.6910333e-05   1.3990870e-08
 -3.1268726e-05   6.7965999e-07
  1.1139339e-05   5.1175476e-07
  1.8212926e-05   5.1003131e-08
 -8.5013589e-06   2.8405111e-08
 -4.2695292e-06   9.9636971e-08
  2.7594429e-06   4.1706426e-07
 -1.4753872e-05   4.6959138e-07
 -5.0943436e-06   1.2555716e-07
  7.5548029e-05   1.2688195e-06
  2.2117629e-06   1.7906989e-07
  8.5352394e-06   4.8651671e-08
 -4.4359713e-06   5.2298024e-08
  8.0049313e-06   1.1183496e-08
 -1.2245841e-05   2.0774341e-06
 -1.3741940e-06   1.1753380e-06
  3.5697885e-06   2.5420741e-06
  7.2435423e-06   1.8786088e-07
  1.1670796e-05   6.1509231e-06
 -6.1993114e-06   1.0185726e-07
  4.8948004e-07   1.9088193e-06
 -5.0114368e-06   3.2646821e-07
  6.7126180e-06   2.1000726e-07
  5.8791744e-07   1.1183702e-07
  2.3652808e-08   1.5171098e-07
 -9.0538215e-06   2.7491609e-07
  6.3294821e-05   1.6054028e-07
 -4.1625032e-07   2.8004362e-07
  7.3520005e-06   1.5454629e-07
  6.2702093e-06   2.3608999e-09
 -3.4439501e-05   1.6963719e-06
 -3.6389491e-05   5.5313176e-08
 -1.5773611e-06   6.1194521e-07
 -5.0963703e-05   6.3941394e-07
  3.9225561e-05   2.2185204e-06
 -5.5241289e-06   3.4337387e-07
  2.9427335e-07   7.3193611e-08
 -9.3916833e-06   4.1607541e-06
 -1.5340456e-06   6.8831250e-06
 -1.5117638e-05   2.9555156e-07
  1.5672920e-05   6.4864099e-07
 -5.7082666e-06   3.9827388e-08
  1.7249136e-05   1.0755200e-06
 -6.1051528e-06   1.2023045e-07
 -3.2494234e-05   2.0158183e-08
 -4.1555218e-06   1.0073625e-05
  1.0309293e-05   1.3938141e-08
 -1.7936025e-06   3.4283212e-06
  7.1859681e-06   1.4746505e-08
 -1.7007920e-06   5.4823073e-07
  3.5443332e-05   7.7669915e-07
  7.4689609e-07   3.7706398e-06
 -2.7714143e-06   1.4438493e-08
 -9.1620950e-06   9.4837895e-07
  2.6684042e-05   4.9440086e-08
  1.3175310e-05   3.1519551e-07
  7.1847257e-06   1.0061682e-07
 -6.8187201e-06   1.5790559e-06
 -2.6532347e-05   1.3816179e-09
  7.4445948e-06   1.8528104e-07
 -4.8394100e-05   3.2585530e-07
 -1.1495235e-06   7.1618047e-07
  1.6195816e-05   4.9735469e-09
 -7.1295988e-05   4.7849670e-07
  2.2773787e-05   1.0645989e-07
 -1.1735052e-05   2.5836243e-07
  2.0141993e-06   1.3814401e-06
 -5.8462911e-06   5.0693325e-07
  2.5716006e-06   6.1166185e-07
 -5.2975778e-05   2.9166194e-10
  3.0591627e-06   6.2178039e-08
  4.8933402e-06   6.4392151e-07
 -1.0799479e-05   1.1732400e-08
  1.8172099e-05   6.9241293e-07
 -1.3708828e-05   6.7589809e-08
  6.5123186e-06   2.8841006e-08
 -3.9415198e-05   5.1662860e-06
 -8.5894380e-06   1.7906088e-07
  9.7168750e-06   1.4138438e-06