144
lattice="29.915531 0.0 0.0 1.7e-05 25.907619 0.0 0.0 0.0 8.0" energy=19.9901567 virial="137.9819976362438 0.0697362517975847 0.24268370423010746 0.0697362517975847 138.3343940340622 0.10967399422550224 0.24268370423010746 0.10967399422550224 -7.427259110708129" properties=species:S:1:pos:R:3:force:R:3
Ne 29.25443 0.96952 3.9446 0.256351 -0.188548 -0.031354 
Ne 27.8657 2.59769 3.88847 0.031996 1.058832 -0.097066 
Ne 27.22761 5.16833 3.97301 0.711523 -0.105792 -0.030765 
Ne 25.42124 7.28811 3.88151 -0.00547 0.08263 -0.062376 
Ne 24.92539 9.72059 3.95428 0.185699 0.387124 -0.054643 
Ne 24.5491 12.12649 4.03803 -0.535126 0.271935 0.052017 
Ne 23.27321 14.39666 4.00663 -0.004481 0.008074 -0.002064 
Ne 21.55921 16.6764 3.9801 -0.049189 0.22 -0.003568 
Ne 20.16138 20.08862 4.00364 -0.259008 0.322758 0.016401 
Ne 18.77498 21.98046 4.0621 0.436301 0.144072 0.002669 
Ne 17.62322 24.14972 4.00844 0.598557 0.056658 -0.021135 
Ne 16.91742 0.48721 3.9932 -0.1815 -0.076008 0.00718 
Ne 13.59436 25.89003 4.02296 0.072262 -0.218032 0.018359 
Ne 2.37377 1.026 4.13581 -0.29433 -0.150742 0.116382 
Ne 1.08088 2.79194 4.04095 -0.600876 0.246076 -0.019766 
Ne 29.53811 4.69141 3.97236 -0.670719 -0.113055 -0.011889 
Ne 27.83769 7.43657 4.05127 -0.047413 -0.482723 0.054788 
Ne 27.08949 9.54228 4.01291 0.071189 0.383972 0.01845 
Ne 26.75428 11.96532 3.91779 0.13557 -0.312512 -0.080994 
Ne 25.9436 14.3099 4.06701 -0.715111 -0.72418 0.024742 
Ne 23.81619 17.01795 3.99698 0.039006 -0.512768 -0.044903 
Ne 22.18685 19.06282 3.8749 0.347358 -0.184632 -0.069083 
Ne 21.92828 21.64478 4.07278 -0.784817 0.577556 0.019225 
Ne 20.68336 24.18853 3.98524 -0.708742 -0.783317 0.00809 
Ne 19.37053 0.19702 3.89394 -0.16547 0.276015 -0.036172 
Ne 14.6203 2.04505 4.0214 -0.707843 -0.44305 0.032711 
Ne 4.54139 1.3029 4.0919 0.639 -0.032962 0.033562 
Ne 3.34128 3.3226 4.05895 -0.272047 0.353798 0.006176 
Ne 1.71207 5.22765 3.98525 0.789942 0.158671 0.006646 
Ne 0.26636 7.20559 3.95705 -0.095677 -1.187425 -0.117706 
Ne 29.31007 9.23595 4.03641 -0.483006 0.758041 -0.006179 
Ne 29.12055 11.67423 3.9538 0.113607 -0.33719 -0.021121 
Ne 28.14732 13.78848 3.99322 0.000615 0.232155 0.023396 
Ne 26.41657 16.35566 4.08157 0.041712 0.780616 0.032524 
Ne 25.16347 18.74099 4.14388 0.26099 0.178731 0.083536 
Ne 23.89496 20.86748 4.07554 0.554686 -0.484713 0.018936 
Ne 22.9228 23.98733 4.09272 -0.060151 -1.281062 0.091015 
Ne 21.96045 0.0977 3.90853 0.065811 0.336819 -0.110573 
Ne 16.60547 2.76279 3.97788 0.619495 0.039835 -0.048904 
Ne 7.02972 1.58432 4.03702 0.260312 0.179171 -0.009933 
Ne 5.56305 3.46509 4.02623 0.694528 -0.00319 -0.014373 
Ne 4.80536 5.60313 4.00652 -0.323567 -0.363974 0.017049 
Ne 3.20321 7.19128 3.8859 -0.423655 -0.09437 -0.07523 
Ne 1.48144 8.94054 4.12276 1.194722 0.449825 0.181742 
Ne 1.63573 11.31607 4.05495 0.106574 0.038645 0.010153 
Ne 0.52777 13.70546 4.00058 -0.043587 0.142501 0.010701 
Ne 29.11128 15.89066 3.88074 -0.039174 0.132072 -0.056249 
Ne 27.99555 18.07936 3.97438 -0.431974 0.031826 -0.028211 
Ne 26.69887 20.48558 4.02599 0.04878 -0.451792 -0.024701 
Ne 25.54972 22.38541 4.05718 -0.336809 0.447121 0.044925 
Ne 24.47531 25.37395 4.07169 0.34351 0.674422 0.06875 
Ne 21.01122 2.15749 3.97938 -0.154081 -0.388641 0.002239 
Ne 9.57083 1.60952 4.01496 -0.033193 -0.018772 0.008208 
Ne 8.43432 3.80761 3.96802 -0.701154 -0.502023 -0.07548 
Ne 7.14887 5.64537 4.02021 -0.124005 0.306691 0.023723 
Ne 5.61741 7.70881 4.02657 -0.176042 -0.21073 0.041927 
Ne 3.81646 9.40081 3.90679 0.132368 0.277381 -0.042138 
Ne 4.28022 11.70819 3.92583 0.072008 -0.279115 -0.041163 
Ne 2.74872 13.54005 4.00317 0.266674 0.252158 -0.002648 
Ne 1.63868 16.12108 3.98833 -0.09756 -0.472904 0.005705 
Ne 0.38542 18.10433 3.99152 0.161012 -0.077626 0.003191 
Ne 29.01608 20.15394 4.03752 0.185896 0.275792 0.028378 
Ne 28.01502 22.44327 3.97492 -0.279832 -0.329259 -0.046456 
Ne 26.4574 24.45008 3.91421 0.448312 -0.502907 -0.147485 
Ne 23.69674 1.66279 3.99172 -0.307384 -0.369705 -0.04959 
Ne 12.03428 2.24149 4.11495 0.880119 -0.679437 0.028029 
Ne 10.59207 3.7499 4.10829 -0.07826 0.508343 0.118827 
Ne 9.57978 5.87323 3.95487 0.220906 0.561802 -0.031968 
Ne 7.91868 8.10049 4.00758 0.620935 -0.55269 0.002677 
Ne 6.42354 9.75487 3.9915 -0.311678 0.976152 -0.012274 
Ne 6.84106 12.33137 3.93313 0.051668 -0.484384 -0.058221 
Ne 5.14133 13.84621 4.07801 -0.037758 0.539165 0.079158 
Ne 4.00494 16.05816 4.01649 0.379247 -0.330231 0.006968 
Ne 2.9616 18.06661 3.98547 0.03347 0.514149 -0.004812 
Ne 1.53343 20.15109 4.01363 -0.238933 0.085283 0.004728 
Ne 0.41879 22.35452 3.98475 -0.152852 0.082153 -0.002289 
Ne 28.85092 24.47246 4.06038 -0.799072 0.051799 0.042489 
Ne 26.65877 0.70819 4.00266 -0.019131 0.061425 0.041343 
Ne 14.58788 6.72713 3.90811 0.117117 -0.536409 -0.056385 
Ne 12.30857 5.24406 3.97117 -0.040266 0.434122 -0.028178 
Ne 10.5794 8.41129 3.98816 -0.520659 -0.177557 0.010503 
Ne 8.78158 10.31382 4.00086 0.150112 -0.154457 0.006411 
Ne 9.20725 12.53165 3.9931 0.311959 0.424866 0.002878 
Ne 7.49212 14.64232 4.05553 0.030963 -0.293335 0.041147 
Ne 6.44429 16.80623 3.98258 -0.431441 -0.17533 0.025236 
Ne 5.39664 18.95564 3.84569 -0.726923 -0.34056 -0.115169 
Ne 3.70957 20.59043 4.02393 0.575711 0.116882 0.041361 
Ne 2.6345 22.67114 3.96526 0.085555 0.280342 -0.023469 
Ne 0.85751 25.21886 4.08808 1.301474 -0.266654 0.05106 
Ne 14.42738 4.32093 3.95931 0.263642 0.085974 -0.008861 
Ne 14.58994 9.16694 3.99859 0.835887 -0.174282 0.021753 
Ne 12.78434 7.9739 3.98611 -0.739354 -0.129054 0.021547 
Ne 11.43761 10.64832 3.90428 -0.089808 -0.506204 -0.071337 
Ne 11.8347 12.79695 4.05311 -0.040865 0.327999 0.075695 
Ne 10.29613 14.86929 4.02003 -0.032015 -0.36395 0.017528 
Ne 8.74417 16.5451 3.97454 0.323478 0.624972 -0.027699 
Ne 7.60653 18.89761 3.84273 0.933023 -0.63421 -0.138854 
Ne 6.6577 20.82922 4.13159 -0.36144 0.927134 0.203706 
Ne 4.94562 23.19659 4.05541 0.470227 -0.5449 0.055543 
Ne 3.65185 25.02791 3.87107 -0.281467 -0.103152 -0.153648 
Ne 19.07214 3.1748 4.05434 -0.705704 -0.210731 0.049261 
Ne 17.27906 4.84858 4.02537 -0.261181 0.507205 0.009707 
Ne 16.72331 7.41765 3.95125 0.165004 0.04085 -0.005032 
Ne 13.91543 11.21436 3.97778 -0.21774 0.237749 -0.008301 
Ne 14.33942 13.42729 3.97772 -0.235068 0.116897 -0.01678 
Ne 12.69395 14.96569 3.9609 0.019026 0.505584 -0.033111 
Ne 11.34525 17.0922 4.01341 0.430477 -0.842696 0.043416 
Ne 10.49333 19.003 3.93784 -0.544114 0.437189 -0.05831 
Ne 9.10027 20.76826 3.88704 -0.211349 0.386764 -0.04177 
Ne 7.60116 23.09143 4.05501 0.059377 0.019861 0.006212 
Ne 6.15721 25.34517 4.12591 -0.098148 -0.289949 0.066579 
Ne 20.51331 4.90445 3.99371 1.73235 -1.141985 -0.09624 
Ne 19.10753 6.24748 4.06619 -1.616803 1.344055 0.1336 
Ne 18.70611 8.6431 4.00211 -0.400623 -0.145333 -0.010102 
Ne 16.89694 10.27273 4.03328 -0.170807 -0.418505 0.021966 
Ne 16.36043 12.46768 4.00597 0.318829 0.159211 -0.000698 
Ne 15.88784 15.11871 4.02138 0.255089 0.172651 0.016098 
Ne 14.08259 17.09201 4.03449 0.07908 -0.176808 0.002964 
Ne 12.83312 19.1578 4.0829 0.111902 0.086618 0.045743 
Ne 11.60112 21.22588 4.03121 0.710245 -0.800124 0.105364 
Ne 10.31334 22.85335 3.88788 -0.983485 1.097141 -0.100972 
Ne 8.54957 25.39822 3.92774 0.208735 -0.251843 -0.051862 
Ne 22.5998 3.62224 3.96139 0.41709 0.337329 -0.023377 
Ne 22.95979 5.81895 3.97685 -0.0704 0.580274 -0.001355 
Ne 21.04115 7.45848 3.93814 0.193365 -0.202313 -0.066969 
Ne 20.58703 9.69331 4.02993 0.543788 0.38603 0.062695 
Ne 19.02929 11.38419 3.93754 -0.20291 0.102556 -0.056649 
Ne 18.55039 13.72162 4.0653 -0.331176 -0.516794 0.058232 
Ne 16.68465 17.47165 3.93282 -0.097356 -0.257872 -0.038118 
Ne 15.18712 19.42173 4.02401 -0.135669 0.17174 0.003373 
Ne 16.50694 22.04856 4.11404 0.122754 -0.373681 0.062739 
Ne 14.29854 21.88253 4.03861 -0.452589 -0.377143 -0.010151 
Ne 11.24498 25.72755 3.89575 -0.223147 -0.226606 -0.044885 
Ne 25.53567 2.76392 4.12396 0.363829 0.202776 0.147429 
Ne 25.13516 4.96204 4.01376 -0.907519 -0.00019 0.020153 
Ne 23.22102 8.38549 4.0229 -0.347047 -0.923553 0.0702 
Ne 22.73805 10.51893 3.97691 -0.107955 0.622868 -0.033859 
Ne 21.24561 12.37097 4.01338 0.129685 0.018527 0.014178 
Ne 20.66799 14.64496 4.00303 0.121693 -0.182363 -0.00597 
Ne 18.56315 15.92105 3.99011 -0.215494 0.151141 -0.015593 
Ne 19.51893 17.9528 3.97971 -0.088704 0.008749 -0.008508 
Ne 17.49964 19.61843 3.99693 0.437677 0.36951 0.003265 
Ne 15.34994 24.13496 4.04357 -0.450063 0.265225 0.001038 
Ne 12.55992 23.43757 3.95289 0.198117 0.455974 -0.0106 
144
lattice="29.915531 0.0 0.0 1.7e-05 25.907619 0.0 0.0 0.0 8.0" energy=30.05940151 virial="172.6875862112016 -9.059327338821081 1.2664753475736716 -9.059327338821081 186.48971396015193 0.045626548762126726 1.2664753475736716 0.045626548762126726 -6.651723879840429" properties=species:S:1:pos:R:3:force:R:3
Ne 25.36664 3.18742 3.95733 0.137202 0.401622 -0.020712 
Ne 26.72109 5.42319 4.23496 -0.121009 -0.135993 0.175199 
Ne 20.63198 11.18075 4.00842 0.120301 -0.40393 -0.046177 
Ne 27.47627 8.81283 3.87537 -1.254038 0.572721 -0.127038 
Ne 24.27478 11.51071 4.04673 0.292402 1.361631 0.079068 
Ne 22.95346 14.82154 4.0604 0.231496 0.298369 0.053954 
Ne 22.29629 12.85151 4.03845 -0.138907 -0.846437 -0.01321 
Ne 20.38905 21.9283 3.91084 1.366494 -0.139148 -0.112559 
Ne 15.60803 18.86427 4.19144 -0.53518 0.014899 0.213667 
Ne 17.1524 25.01652 4.11713 -0.04809 -0.059838 0.01536 
Ne 23.94423 1.39615 3.95862 0.157151 0.174947 -0.092228 
Ne 16.1528 3.96935 3.85168 1.625392 1.040981 -0.314755 
Ne 16.80006 1.73349 3.92285 -0.542892 -1.114288 -0.144113 
Ne 26.04309 22.19931 4.09219 0.066601 1.90107 0.084254 
Ne 25.35809 7.25876 3.85665 0.837383 0.690281 -0.325911 
Ne 23.18513 7.70569 4.03689 0.234923 -0.222959 0.100972 
Ne 1.64171 8.05477 3.94565 0.108608 -0.382694 -0.03763 
Ne 6.38141 12.33518 3.89462 0.188186 -1.091776 -0.095647 
Ne 1.76072 10.40438 4.15582 0.339511 0.031328 0.136096 
Ne 29.55225 9.21763 3.92431 0.618032 0.559538 -0.018603 
Ne 24.39911 18.94644 4.02387 -0.056483 0.451539 0.000356 
Ne 22.16307 25.88628 4.19877 -0.996004 0.922682 0.288507 
Ne 26.70031 1.18412 3.93253 -1.296917 0.001009 0.032106 
Ne 26.29675 24.94512 4.03868 0.12783 -0.692041 0.019369 
Ne 14.61775 23.79451 4.08123 0.966899 0.781451 0.059261 
Ne 20.94692 2.00062 4.01758 0.691659 0.489531 -0.037013 
Ne 0.94364 5.66147 4.09977 0.608634 0.148515 0.071166 
Ne 28.48353 23.62848 4.19939 0.011266 0.023271 0.042983 
Ne 0.16521 3.07738 4.01573 0.142745 0.399582 0.113484 
Ne 28.85344 4.75048 3.93825 -0.183797 1.388432 -0.148719 
Ne 7.95949 13.74715 3.99111 0.143137 0.966374 0.031168 
Ne 4.20659 11.24378 3.91613 0.006143 -0.311894 -0.051527 
Ne 28.17482 13.59647 3.80467 0.102743 0.239305 -0.054961 
Ne 27.23101 11.43208 3.99082 -0.123264 -0.211049 0.032124 
Ne 23.88223 16.75912 3.98533 0.90444 -0.205013 -0.057316 
Ne 26.51489 20.25615 4.08342 0.256102 -0.166632 0.033306 
Ne 23.90364 21.57761 3.8184 -0.093417 -0.133735 -0.161956 
Ne 18.62549 2.62234 4.07187 0.649478 1.530461 0.148928 
Ne 18.38306 4.74386 4.07587 -0.182654 0.633947 0.099247 
Ne 3.89195 1.58645 3.99412 -0.281223 -0.380643 0.000329 
Ne 8.0483 2.7138 4.18339 -0.561716 -0.160055 0.082983 
Ne 28.68439 0.46337 3.8463 -0.053995 0.266931 -0.097506 
Ne 3.61809 6.39279 4.07079 -1.110829 0.977598 -0.002325 
Ne 28.65733 7.08098 4.01517 0.461571 -0.791024 0.09142 
Ne 4.78175 16.83156 4.25106 0.412421 0.849573 0.187922 
Ne 0.84976 16.64841 4.00858 -0.954658 -0.074649 0.022898 
Ne 0.81271 14.56196 3.95542 -0.314381 -1.08733 -0.0416 
Ne 26.11841 15.99504 4.09944 -0.206115 -0.287038 0.097596 
Ne 23.97584 25.03736 4.09738 1.767145 -0.61692 -0.037988 
Ne 0.79197 20.28567 3.90898 0.571258 2.012944 -0.174865 
Ne 24.28403 5.4639 4.22277 -0.616985 -0.709809 0.225367 
Ne 26.49219 18.2364 4.05224 0.681973 -1.352924 -0.027882 
Ne 11.35295 21.15653 3.91083 -0.633379 -0.086878 -0.091577 
Ne 7.41586 23.98702 4.12048 0.374717 0.663993 0.186326 
Ne 3.91882 8.97807 3.8928 -1.21793 -0.651401 -0.153397 
Ne 10.09369 3.46254 4.08557 0.833147 -0.75676 0.039609 
Ne 5.91486 9.37826 4.06228 1.241583 0.39833 0.145502 
Ne 8.05165 16.05323 4.01428 0.558758 -0.631318 -0.034257 
Ne 4.961 19.30589 4.03465 1.325198 -1.079955 0.064691 
Ne 29.85752 11.78863 3.90479 -0.198213 0.204192 -0.050717 
Ne 4.5414 13.4479 3.98643 -0.417733 0.815097 0.01782 
Ne 29.21229 18.85105 3.96512 -1.049462 -1.081789 0.017097 
Ne 28.38421 16.07228 3.89043 0.280239 0.141135 -0.056 
Ne 1.45818 23.42524 3.99623 -0.163689 -1.095173 0.029814 
Ne 22.8015 3.50727 4.04638 0.383379 0.026023 0.062562 
Ne 13.90964 20.35649 3.90651 -0.105261 -0.15218 -0.100913 
Ne 8.42148 0.43718 3.99644 0.261576 -0.325104 -0.033405 
Ne 9.97348 23.97081 4.0847 1.137127 1.433118 0.208616 
Ne 9.13907 8.00479 3.90837 -0.070469 -0.236487 -0.053292 
Ne 9.40976 12.29051 3.98342 0.569258 -0.209576 0.022735 
Ne 8.21268 10.10033 4.07556 -0.196537 0.299497 0.058725 
Ne 10.64658 10.50606 3.89832 0.56528 -0.645223 -0.046229 
Ne 1.71786 18.47507 4.02583 1.138818 -0.397478 0.120914 
Ne 2.94357 15.80487 4.0369 -0.249358 -0.605844 -0.096717 
Ne 2.43342 12.80885 4.03654 -0.615585 -0.026856 0.038853 
Ne 3.20426 20.10517 3.98692 -1.576364 1.321176 -0.068603 
Ne 27.89301 2.92814 3.87757 -0.604523 -0.304445 -0.123073 
Ne 21.34719 6.62153 4.04028 1.511826 -0.078325 0.187641 
Ne 12.45338 25.01649 3.96354 0.466799 -0.546136 -0.010334 
Ne 14.68132 0.47733 3.86029 -0.139352 -0.861175 -0.098273 
Ne 10.96785 0.64396 3.96483 -0.656473 0.605109 -0.001433 
Ne 6.32397 7.03438 3.96296 0.099366 0.217798 -0.063586 
Ne 5.59952 3.12976 4.00143 0.722443 -1.693364 -0.118916 
Ne 14.91812 13.24618 4.06071 -0.908087 -0.018612 0.035499 
Ne 6.08972 15.05565 4.0687 -0.210936 -0.099553 0.005537 
Ne 3.35811 24.91159 4.08308 -0.635772 0.799795 0.080143 
Ne 3.51802 22.53671 4.04687 0.080015 -0.640913 0.039957 
Ne 5.27515 23.95531 3.95161 -0.008491 0.705257 -0.161449 
Ne 28.66809 21.16243 4.04943 -0.255525 0.502831 0.031562 
Ne 12.67102 2.45105 3.94462 -0.979256 -0.095423 -0.041594 
Ne 14.78488 2.61961 4.03503 -1.04422 -1.072011 0.445371 
Ne 15.92332 8.86372 4.01411 -1.582563 -0.143849 0.215065 
Ne 11.81623 5.479 3.99542 0.965025 -1.177547 0.020763 
Ne 9.76516 5.56214 3.93838 -0.713919 1.036337 -0.227344 
Ne 16.99969 12.93528 4.07988 1.156465 -0.423581 0.041597 
Ne 13.23442 9.72881 3.91695 0.065686 -1.555797 0.076151 
Ne 10.29532 15.34394 3.93631 -0.592871 -1.2502 -0.062914 
Ne 6.07642 21.954 3.97036 -0.002331 -0.454558 -0.01006 
Ne 1.48117 1.58394 3.9955 1.026185 -1.312449 -0.010789 
Ne 0.528 25.2792 3.90895 0.506779 0.283338 -0.043073 
Ne 16.11166 6.12773 3.9139 -0.842667 -0.161871 0.047721 
Ne 13.73702 7.1974 3.95173 0.622296 0.002305 -0.031804 
Ne 13.87262 4.63252 3.87119 0.067201 0.434361 -0.093842 
Ne 17.63273 19.80076 4.00739 -0.070058 0.4212 -0.054023 
Ne 13.05958 11.73964 3.81721 -0.076324 1.070456 -0.141449 
Ne 11.75289 13.58449 3.9121 -1.082375 -0.917491 -0.041515 
Ne 7.16079 17.91449 4.12281 -0.351884 -0.42696 0.194958 
Ne 7.02265 19.92656 3.97883 0.32886 1.282452 -0.155219 
Ne 11.75699 18.86601 4.01097 0.373691 1.899468 -0.055989 
Ne 2.84859 3.69955 4.03392 -0.126338 0.341821 0.005542 
Ne 5.09593 5.0103 4.0941 0.411337 0.879206 0.147035 
Ne 17.47323 7.6748 3.87029 1.549521 -0.165384 -0.253103 
Ne 18.16513 9.93179 4.03635 -0.579827 0.795499 -0.009513 
Ne 11.54446 7.52081 4.07694 -0.59197 1.435237 0.11698 
Ne 15.55379 10.87368 3.94753 -0.152639 1.164761 -0.061815 
Ne 19.9223 13.24643 4.05942 -0.365494 0.437304 0.050245 
Ne 17.27423 17.38525 3.92889 -0.367978 -0.373542 -0.142985 
Ne 16.14013 15.23535 4.09117 0.859178 -1.135383 0.317747 
Ne 7.68531 5.07626 4.20928 -0.64472 -0.107684 0.159793 
Ne 9.83751 17.49279 3.81685 -2.158131 1.407568 -0.455389 
Ne 6.04311 0.72473 3.93042 0.125581 -0.327396 -0.03189 
Ne 8.83778 22.347 3.87063 -0.640877 -1.562912 -0.329923 
Ne 20.08648 8.986 4.11448 0.823962 -0.453973 0.098975 
Ne 19.39579 6.79024 3.93415 -1.120733 -0.199237 -0.148169 
Ne 18.30692 15.01437 3.83797 0.499968 0.111047 -0.158241 
Ne 22.06869 17.82838 3.97911 -1.094784 -0.809685 -0.056506 
Ne 19.83773 19.74881 4.03846 0.524847 0.185111 0.039474 
Ne 22.52575 23.43198 4.06521 -0.480735 -0.559705 0.039068 
Ne 18.52809 22.77803 4.00887 -1.235822 0.522095 0.066676 
Ne 13.26895 14.94613 3.98427 0.534636 0.638447 0.056955 
Ne 11.66778 16.91356 4.10221 2.768929 -1.895173 0.547931 
Ne 14.74609 16.59842 3.91172 -1.283991 1.801183 -0.258598 
Ne 9.2282 20.11068 4.02119 0.437127 -0.514478 0.06893 
Ne 25.27272 9.62837 4.02185 0.488835 -0.494855 0.058054 
Ne 20.79823 4.49363 3.82161 -0.423023 -0.305277 -0.174047 
Ne 20.67745 15.68078 4.00107 0.186163 -0.21125 -0.002387 
Ne 22.96734 9.82194 3.9041 -1.032137 0.246787 -0.153688 
Ne 19.40757 17.60406 4.04708 0.482908 -0.292911 0.06947 
Ne 25.67422 13.69337 3.95233 -0.202512 -0.223463 -0.017303 
Ne 20.4408 24.65394 3.96779 -0.769546 -0.710788 -0.135804 
Ne 22.33012 19.85835 4.04397 -0.367895 1.383813 0.089066 
Ne 19.24996 0.73394 4.04827 -0.342223 -2.051458 0.005752 
Ne 16.0933 21.84545 4.0321 0.044505 -0.058304 -0.000451 
Ne 13.02684 22.45511 4.0243 -0.32281 0.203284 0.051831 
144
lattice="29.915531 0.0 0.0 1.7e-05 25.907619 0.0 0.0 0.0 8.0" energy=20.27970196 virial="140.3348414968373 -1.5297858121856398 -0.43676100876112145 -1.5297858121856398 138.36268326828196 -0.9032818275290923 -0.43676100876112145 -0.9032818275290923 -7.14661133155381" properties=species:S:1:pos:R:3:force:R:3
Ne 29.1844 1.42077 4.0087 -0.230597 0.014641 -0.015315 
Ne 27.77611 3.52665 4.11557 0.137855 -0.518332 0.078263 
Ne 26.71293 5.5002 3.92437 -0.101978 -0.092495 -0.079876 
Ne 25.62103 7.46191 3.97648 0.14487 -0.053321 -0.052493 
Ne 24.60687 10.86222 3.98389 0.352862 -0.352725 -0.001895 
Ne 23.8327 12.95697 3.97859 0.097363 -0.044948 -0.017263 
Ne 22.3299 14.55904 4.05228 -0.002175 -0.030006 0.046163 
Ne 21.13787 16.41538 4.01488 -0.106076 0.359301 0.013389 
Ne 20.33606 18.56084 3.93833 0.107064 0.384244 -0.060896 
Ne 20.0216 21.12526 3.98664 0.10087 0.233839 -0.006144 
Ne 18.33533 23.28849 3.96553 0.265315 -0.379107 -0.022974 
Ne 17.64244 25.54186 4.01156 0.695914 0.164293 -0.011366 
Ne 15.50822 25.82913 4.05005 -0.754782 0.445561 0.049513 
Ne 2.79481 1.86641 3.89877 0.27738 -0.276288 -0.050297 
Ne 0.79614 3.19657 4.01722 -0.306639 0.108294 0.020577 
Ne 29.37425 5.37723 3.99789 -0.416615 -0.097908 -0.049117 
Ne 28.07446 7.54403 4.09869 -0.506214 -0.438252 0.126962 
Ne 26.60849 9.51511 4.09273 -0.147665 0.29547 0.094934 
Ne 26.87882 12.01915 4.08513 0.153711 -0.169093 0.037794 
Ne 25.9216 14.17685 3.91429 0.00026 -0.003972 -0.058566 
Ne 24.44051 16.01764 4.02757 -1.100061 -0.145971 0.037441 
Ne 22.99711 18.06973 4.1225 0.146835 -0.320859 0.081307 
Ne 22.22917 20.19253 3.92189 -0.751763 0.136317 -0.101108 
Ne 20.74867 23.44318 4.08359 -0.107022 -0.029471 0.05448 
Ne 20.14912 25.76421 4.11495 0.229544 -0.439959 0.052433 
Ne 16.45876 2.04837 3.96817 0.163466 -0.055619 -0.017967 
Ne 5.32678 1.33115 3.96694 0.331239 0.386877 -0.045744 
Ne 2.92445 4.11178 3.98519 0.35074 -0.433123 -0.035471 
Ne 1.65243 5.79771 4.10654 -0.21332 0.585806 0.13139 
Ne 0.35574 7.75753 4.0259 0.308336 -0.080772 -0.016576 
Ne 28.89279 9.62763 3.81691 -0.174534 0.622285 -0.228986 
Ne 29.56837 12.14654 4.07589 -0.069283 -0.134059 0.049876 
Ne 28.34525 14.16838 3.95429 -0.384249 0.049855 -0.05559 
Ne 26.46092 16.60455 3.9781 1.178282 -0.304998 0.011656 
Ne 25.51848 18.58819 3.85371 -0.187394 -0.06784 -0.141455 
Ne 24.36217 20.45743 4.02744 0.408441 0.419777 0.11858 
Ne 22.90172 22.50806 3.89805 0.252492 -0.012356 -0.057865 
Ne 22.69777 24.91332 4.0389 -0.182606 0.185743 0.020005 
Ne 19.04922 1.77417 4.01032 -0.121739 -0.1917 0.002128 
Ne 7.9354 1.69966 3.98155 -0.120389 -0.075049 -0.002541 
Ne 5.15761 3.66887 3.97627 0.172588 -0.009549 -0.012027 
Ne 3.96359 6.15555 3.94912 -0.016741 0.131062 -0.063773 
Ne 2.61655 8.2858 4.11463 0.231927 -0.621731 0.079981 
Ne 1.1618 10.1053 4.04501 0.157102 0.174289 0.07458 
Ne 2.09234 12.27664 3.89159 -0.046678 0.128851 -0.076787 
Ne 0.6537 14.69805 4.04058 -0.020171 -0.511949 0.030803 
Ne 29.00944 16.52832 4.13967 -0.032279 -0.090051 0.081523 
Ne 27.94356 18.6031 3.97731 0.021558 -0.176857 -0.023782 
Ne 26.95004 20.57832 3.98843 -0.085203 0.423154 0.014516 
Ne 25.56218 22.57976 3.96706 0.003938 -0.085871 -0.005866 
Ne 25.0886 24.82161 3.95665 -0.608683 -0.038596 -0.009973 
Ne 21.73691 1.72737 4.05744 0.022334 -0.370897 0.028936 
Ne 10.4169 1.11741 4.00736 -0.392736 0.145572 0.029383 
Ne 7.55161 4.1091 4.06545 0.605284 -0.469017 0.05227 
Ne 6.26353 5.85121 3.99728 -0.570244 0.141392 -0.016859 
Ne 5.39765 7.99196 4.02248 -0.216492 0.510047 0.023083 
Ne 3.64882 10.2347 3.98527 0.412415 0.40705 -0.048133 
Ne 4.46558 12.68846 4.0982 -0.348077 -0.178049 0.066459 
Ne 2.96394 14.55896 3.96072 0.231507 0.078767 -0.024971 
Ne 1.64014 16.72216 4.00561 -0.111458 0.097589 -0.004468 
Ne 0.3285 18.70243 4.00196 0.368181 -0.260871 -0.007975 
Ne 29.63441 20.82831 4.02109 -0.823448 0.371222 0.033747 
Ne 28.10648 22.77562 4.00726 0.028255 -0.134046 0.010133 
Ne 27.23585 24.96988 3.91898 -0.263458 -0.005332 -0.16846 
Ne 24.07292 1.03333 4.01005 -0.439506 0.33061 -0.015691 
Ne 12.68038 0.71128 3.85649 0.471419 1.082002 -0.261416 
Ne 10.05756 3.22125 3.87049 -0.294346 0.695431 -0.108015 
Ne 8.30605 6.61076 3.98558 0.417352 0.029189 -0.023973 
Ne 7.51581 8.99597 3.99313 0.194881 -0.575793 0.021506 
Ne 6.16912 10.75812 3.98056 -0.240068 0.302026 -0.018377 
Ne 6.59807 13.20092 4.06654 0.331338 0.051312 0.044492 
Ne 5.43891 15.35025 3.89129 0.247622 -1.158703 -0.091166 
Ne 3.94284 16.84807 3.97769 -0.091144 0.151781 0.024601 
Ne 2.85996 18.77667 3.9845 -0.671947 0.060186 -0.03425 
Ne 1.89224 20.98255 3.95764 -0.546711 0.2848 -0.056949 
Ne 0.7256 23.20005 4.0144 0.135984 -0.302467 -0.021884 
Ne 29.31544 24.98548 4.09808 0.43449 0.08995 0.201769 
Ne 26.30629 1.17716 4.09044 0.511991 0.374837 0.076387 
Ne 12.37374 3.92638 4.11 0.049526 0.159303 0.053411 
Ne 10.62416 5.60135 3.97787 -0.107734 0.078804 -0.01771 
Ne 10.07668 8.15169 4.09226 -0.222525 0.024266 0.048786 
Ne 9.19124 10.49265 3.89962 0.287378 0.299245 -0.054408 
Ne 8.88907 12.88525 3.95566 -0.115107 0.062626 -0.027532 
Ne 8.03263 15.20827 3.94211 0.149633 0.116905 -0.012046 
Ne 6.53037 17.23877 3.9525 0.522412 0.060887 -0.050216 
Ne 5.13192 19.00656 4.1374 0.23615 -1.159963 0.292509 
Ne 3.94713 20.73842 3.99666 0.459341 1.193954 -0.021858 
Ne 3.08446 23.40409 4.03502 -0.725572 -0.312936 0.014378 
Ne 1.47077 25.87909 3.90209 0.219854 -0.122637 -0.066122 
Ne 14.1923 2.49128 4.03051 -0.345082 -0.85 0.030471 
Ne 14.56106 6.75518 3.8901 -0.116627 -0.490446 -0.11157 
Ne 12.29673 7.40998 4.05914 0.099362 -0.104388 0.029765 
Ne 11.68472 9.87426 4.05617 -0.0703 0.019083 0.019036 
Ne 11.13404 12.71916 4.01539 0.113178 -0.232069 0.031589 
Ne 10.88173 15.37538 3.93608 0.200978 -0.309162 -0.023127 
Ne 9.58416 17.23883 4.01706 -0.636486 -0.298084 0.00303 
Ne 7.78076 19.20405 4.11716 0.386208 -0.298039 0.092198 
Ne 6.21472 20.80842 3.88847 0.513929 0.990102 -0.225178 
Ne 5.23914 23.25668 3.94349 0.396796 -0.331117 -0.044642 
Ne 4.02682 25.46433 4.1423 -0.236838 -0.038525 0.127893 
Ne 18.01334 3.7284 3.91005 -0.323285 0.83772 -0.058622 
Ne 15.11981 4.38811 4.02124 0.507119 0.786112 0.008633 
Ne 16.85473 6.59763 4.05327 -0.29714 -0.172681 0.076081 
Ne 14.31748 8.9596 4.0221 -0.708388 0.562222 0.033869 
Ne 13.32573 11.45777 3.9835 0.301616 0.204837 -0.02017 
Ne 13.07567 14.00925 3.96154 -0.96118 -2.000662 -0.066866 
Ne 12.61541 17.63629 4.05624 0.079043 -0.063526 0.01298 
Ne 10.69735 19.08021 4.05758 0.344706 0.555314 0.019152 
Ne 9.25731 21.03572 4.09586 -0.705127 -0.490277 0.056376 
Ne 7.5741 22.78089 4.01513 0.075398 0.153578 0.020339 
Ne 6.58073 25.1751 3.87479 -0.514501 0.13458 -0.071801 
Ne 20.40804 3.69718 3.9934 -0.799567 0.159586 0.01815 
Ne 19.03006 6.0848 3.94603 0.486615 -0.356642 -0.038241 
Ne 18.50125 8.34937 3.94201 0.785097 -0.140563 -0.057369 
Ne 16.48783 9.17026 4.03204 -0.48274 -0.445283 0.075317 
Ne 15.81781 11.43068 4.01046 -0.290087 0.245456 0.010919 
Ne 15.8785 13.89091 4.02043 -0.444185 -0.15806 0.013026 
Ne 14.04946 15.65963 4.00311 1.136239 2.0458 0.049 
Ne 13.51342 20.06275 3.85937 -0.490008 0.021079 -0.090982 
Ne 11.39852 21.46285 3.96915 1.030861 -0.264586 -0.090319 
Ne 9.99462 23.12027 4.0911 -0.16171 0.691967 0.056362 
Ne 8.72854 25.18375 3.9423 0.582284 0.037163 -0.008951 
Ne 22.51613 3.92152 3.93696 1.276626 -0.354277 -0.101706 
Ne 21.47377 5.86339 4.08072 -0.42642 -0.068377 0.147465 
Ne 21.44724 8.01878 3.91559 -0.457887 0.524432 -0.12084 
Ne 20.26119 10.15341 4.10595 -0.618273 -0.358427 0.175374 
Ne 18.0344 10.67389 3.9404 0.39108 0.320718 -0.09439 
Ne 18.2406 12.91145 3.97452 -0.20109 -0.316981 0.015513 
Ne 16.07607 16.93686 4.0231 -0.176511 -0.287385 -0.021078 
Ne 15.51205 19.12309 4.05398 0.34055 -0.122553 0.089958 
Ne 15.93879 21.42811 3.90327 0.169406 -0.415425 -0.057347 
Ne 13.68745 22.47167 3.97551 -0.024828 -0.465158 -0.004891 
Ne 11.23854 25.06703 4.155 -0.206278 -1.180193 0.248882 
Ne 25.15121 3.44073 3.85767 -0.110978 0.074886 -0.033049 
Ne 23.77716 5.96739 4.03002 0.327856 -0.107292 0.010127 
Ne 23.65217 8.46723 4.0448 -0.056891 0.39169 0.063323 
Ne 22.30591 10.67627 3.89624 0.749917 0.009131 -0.159101 
Ne 20.82698 12.46503 4.05142 0.044538 0.068396 0.048586 
Ne 19.80509 14.51456 3.91773 0.697236 0.237501 -0.100337 
Ne 17.75465 15.14759 3.98597 -0.476406 0.477356 -0.008233 
Ne 18.34875 17.38404 4.13115 0.156745 0.127484 0.090646 
Ne 18.10478 19.9019 4.01611 -0.419129 -0.098148 0.005399 
Ne 16.05917 23.61532 3.97215 -0.266694 0.220078 0.004687 
Ne 13.53952 24.63408 4.03167 0.179382 -0.193818 0.068713 
144
lattice="29.915531 0.0 0.0 1.7e-05 25.907619 0.0 0.0 0.0 8.0" energy=25.32612216 virial="158.03829071080781 -1.31775200330719 -0.6520068647534444 -1.31775200330719 162.67706723368303 -1.748553310194378 -0.6520068647534444 -1.748553310194378 -7.1433218857143" properties=species:S:1:pos:R:3:force:R:3
Ne 0.45976 2.02601 3.96273 0.1319 -0.106109 -0.0204 
Ne 29.03661 4.0572 3.92092 0.002916 0.170762 -0.028757 
Ne 27.44604 6.47691 3.93892 0.092417 -0.282956 -0.014614 
Ne 25.54981 7.91406 3.85746 0.14091 0.699536 -0.054389 
Ne 24.59588 10.30312 3.92035 0.491784 -0.129798 -0.056734 
Ne 24.36323 12.49062 4.00664 0.127898 0.034743 -0.016249 
Ne 23.15141 14.36724 4.12933 -0.736158 -0.064561 0.123638 
Ne 21.1514 17.95915 3.93457 -0.364933 -0.570307 -0.053566 
Ne 18.84964 18.84771 3.99711 0.585141 0.160517 -0.06416 
Ne 18.45079 21.05086 4.13509 0.3629 0.183681 0.083188 
Ne 16.68593 22.46481 3.97525 0.231594 2.19002 -0.210372 
Ne 17.88928 0.20619 4.02027 -1.211684 -0.015276 0.046365 
Ne 13.06969 24.91291 4.00282 -0.424933 0.315387 -0.030122 
Ne 2.95025 2.04002 4.19052 -0.557976 -0.319395 0.097651 
Ne 1.92103 4.18282 4.09748 -0.39036 -0.46512 0.017666 
Ne 0.27203 6.15693 3.97877 -0.32261 -0.17731 -0.039623 
Ne 29.03656 8.28036 4.13155 -0.50947 -0.690218 0.141221 
Ne 27.52626 10.22796 4.0561 -0.948592 -0.815674 0.064757 
Ne 26.61099 12.325 3.94398 -0.631309 -0.305125 -0.064809 
Ne 25.37541 14.58627 4.03458 -1.005315 -0.710843 -0.062294 
Ne 23.69432 16.49705 4.02084 -0.529897 -0.144189 -0.045024 
Ne 22.88825 19.21957 3.99562 0.286743 -0.135198 0.012474 
Ne 21.29048 20.48589 3.97324 -1.11928 0.920621 -0.026507 
Ne 20.32391 22.79825 4.09371 -0.015223 -0.293689 0.058576 
Ne 18.25524 24.04747 3.93663 0.45471 -0.547307 -0.07716 
Ne 14.66904 0.61664 4.0114 -0.391596 1.29306 -0.051748 
Ne 5.13372 1.8333 4.04631 -0.093258 -0.08718 -0.059445 
Ne 4.40866 3.90909 4.14032 -0.347148 0.57654 0.074727 
Ne 2.59961 6.25131 4.04891 0.866354 0.241928 -0.01278 
Ne 1.48009 8.19612 4.07169 0.030342 0.649239 0.025971 
Ne 29.73435 10.27836 3.95586 1.655459 -0.418035 -0.153833 
Ne 28.77201 12.0628 3.99759 0.205728 1.587701 0.03505 
Ne 27.44805 14.3481 3.95298 0.819077 -0.042512 -0.079628 
Ne 26.28208 16.42394 4.16679 0.036074 1.174231 0.220872 
Ne 24.73163 18.34479 4.02813 1.719928 0.391446 0.018005 
Ne 24.15921 21.11974 4.02396 0.068674 -0.690015 0.02106 
Ne 22.87158 22.91588 4.03467 -0.362618 0.531688 0.004554 
Ne 21.03128 25.00105 3.92591 -0.002376 -0.10567 -0.048282 
Ne 16.54491 2.03671 4.02522 0.075466 -0.275288 0.009837 
Ne 7.38276 2.01919 3.97619 0.240873 1.19306 -0.096113 
Ne 6.67525 4.40934 3.92052 -0.932097 -0.249637 -0.200226 
Ne 5.35401 6.12886 4.05546 -0.389229 0.877433 0.042346 
Ne 3.87902 8.70042 3.95063 -0.309938 -0.518841 -0.078704 
Ne 2.68705 10.76325 4.11518 -0.55599 -0.489508 0.131373 
Ne 1.31018 12.49112 4.00328 -0.343546 0.145034 -0.038235 
Ne 29.70677 14.43503 4.01372 0.537698 -0.157538 0.03494 
Ne 28.51295 16.37712 3.92868 0.619478 0.551255 -0.088988 
Ne 27.47605 18.55836 3.92711 0.004292 0.087612 -0.03877 
Ne 26.61125 20.76356 3.98299 -0.071826 0.050283 0.003462 
Ne 25.43085 22.91019 3.9812 0.119714 0.573247 -0.004059 
Ne 23.74746 25.60683 4.00143 0.269619 -0.343055 0.019371 
Ne 22.04016 1.18355 3.95363 0.166401 0.529365 -0.021765 
Ne 9.4269 1.3241 4.05945 0.246419 -0.553966 0.086465 
Ne 8.67111 4.17819 4.03487 -1.2561 -0.062948 0.378428 
Ne 8.07571 6.65695 3.98716 -0.376029 -0.459211 -0.036875 
Ne 6.07482 9.11071 4.12573 0.429902 -0.853197 0.117479 
Ne 4.86339 10.90234 3.94601 0.451321 0.39834 -0.12398 
Ne 3.82545 12.93473 3.96947 -0.423217 -0.49395 -0.008989 
Ne 2.30262 14.64327 4.04104 0.306254 -0.299398 0.04146 
Ne 1.46381 16.60466 3.99932 -1.021738 -0.192156 -0.031919 
Ne 0.11604 18.72375 4.02007 -0.255796 -0.10415 0.01267 
Ne 29.04261 20.87636 3.99766 -1.099322 0.002792 -0.013447 
Ne 27.80076 23.371 3.91593 -0.248195 -0.257571 -0.051401 
Ne 26.26778 25.25554 3.89652 0.165832 -0.361354 -0.052151 
Ne 25.75836 1.48885 4.00425 -0.743391 0.379909 0.074351 
Ne 11.77074 0.98384 4.10641 0.18505 -0.070762 0.09365 
Ne 10.41919 3.3424 3.87637 1.113492 -0.888618 -0.337731 
Ne 10.19746 5.55994 3.91513 1.03938 0.911826 -0.081248 
Ne 7.66405 10.78417 4.12023 0.320757 -0.024214 0.213517 
Ne 6.66927 12.59904 3.80915 -1.003062 0.728631 -0.269243 
Ne 7.74536 14.99241 3.96523 -1.201517 -0.51579 0.010077 