 -2.8990725e-02   1.2981074e-08
  1.3517489e-01   2.1859938e-08
  6.1254814e-02   1.4286604e-07
  3.3378791e-02   2.1953436e-08
 -4.2568162e-02   5.6755383e-08
  3.0760449e-01   9.8299440e-09
  2.9261529e-01   2.1591445e-08
  2.0498253e-01   1.5729420e-06
  8.9087945e-01   1.8362850e-06
 -7.2444521e-02   4.0775319e-07
 -9.9423118e-02   4.2921911e-07
 -8.5044079e-02   3.9687981e-07
 -2.0445654e-01   1.9311604e-07
  1.3223252e+00   1.0052029e-05
  3.0258628e-02   2.0513669e-06
  2.3296085e-01   1.3143896e-06
 -9.1929175e-02   1.0891320e-07
 -5.6063514e-02   3.8152874e-07
 -1.2756181e-01   3.4349199e-07
 -4.0795762e-02   5.9427850e-07
  1.0640119e+00   5.3432257e-07
 -9.9194665e-03   4.0931940e-07
  2.1794170e-01   5.2161681e-07
  8.2954787e-02   2.8554231e-07
  1.8699993e-03   4.4583888e-07
 -1.7532818e-03   3.0692669e-07
 -2.7084978e-02   2.4491106e-07
  6.5544391e-01   1.7638253e-06
  2.4291761e-02   2.5089985e-06
  2.0735896e-01   1.2091886e-06
 -2.3262585e-02   5.9037899e-07
 -2.0880805e-02   7.3224385e-07
 -3.3151172e-02   3.5872159e-08
 -9.7677268e-02   1.4505626e-07
  1.0271373e+00   1.3586412e-06
 -6.2449243e-02   5.3736570e-05
 -7.8576356e-01   8.6883592e-06
 -1.9691776e-02   1.4495361e-06
 -4.6301916e-02   3.4020638e-06
  4.1249830e-02   3.1192285e-06
 -8.9493684e-02   9.8282499e-07
  5.1199338e-05   2.1260583e-07
 -3.7464425e-01   2.1016834e-08
  8.2358444e-01   9.3365379e-08
  1.3267450e-01   8.1269427e-09
  8.6699419e-02   6.7741445e-07
 -1.3666787e-02   8.9462581e-08
  3.9194566e-01   1.0838636e-08
  1.9413319e-01   4.0103831e-07
  7.2059390e-04   8.4266394e-06
  1.8727539e-01   1.2580018e-05
 -7.3602647e-02   1.6927572e-06
 -2.7568516e-04   3.5725293e-07
 -1.4325240e-01   3.7810599e-07
 -7.2786056e-02   2.2685977e-06
  1.1280099e-01   3.4955362e-06
  8.5103471e-04   7.3294552e-07
  2.9648378e-05   8.8359187e-08
  1.8397583e-02   1.9649797e-06
 -3.0730795e-02   1.1211005e-06
 -8.9697048e-02   8.3704089e-07
 -9.3549825e-02   3.5523360e-07
  2.8700370e-01   9.3342226e-07
  4.1017908e-04   2.7271985e-06
  2.5579971e-01   6.8049565e-07
  2.1764783e-03   2.5045787e-07
 -3.4778195e-03   1.8588300e-06
 -4.4866495e-02   5.3036246e-07
 -1.7322955e-01   8.0504577e-07
  3.9359406e-02   1.3960525e-06
  2.0171688e-05   3.9307001e-06
  3.4388945e-02   1.7490545e-06
  7.5444302e-07   1.6963282e-06
  8.1600128e-03   8.3294941e-07
 -1.0487846e-02   7.8245495e-07
 -3.8883820e-02   5.9782860e-07
  6.4004294e-04   1.1619226e-06
  4.9655300e-06   3.7003551e-06
 -3.6622569e-04   3.5803929e-05
 -5.9647122e-05   5.6034396e-06
 -1.3483000e-05   4.5064421e-06
 -3.9404327e-05   3.0032160e-07
 -1.1009759e-01   4.7506910e-06
  1.2270277e-04   2.3365708e-05
 -2.3727045e+00   2.0372980e-07
 -7.3410116e-02   3.4215918e-07
  1.1454364e+00   1.0766328e-06
  7.0473695e-01   7.4841324e-07
 -3.1183261e-01   3.5523240e-07
 -1.2747736e+00   1.5014573e-06
 -1.3459373e+00   7.2159601e-06
  6.8838883e-05   8.1834656e-08
  9.8016062e-05   7.6974538e-07
 -1.2607501e-04   5.3774056e-07
  2.8796098e-06   5.6470719e-07
  5.0036769e-02   2.7096043e-05
  1.4012453e-01   4.1136168e-06
  3.7708753e-05   5.3460185e-06
  7.8268575e-05   5.5168898e-06
  3.4262288e-05   3.6451097e-06
 -5.4312334e-04   2.5315279e-05
 -5.1162548e-02   2.8480226e-06
  1.3380470e-04   1.8310151e-06
  6.2217826e-01   1.0909606e-05
  6.0202333e-06   6.0868015e-06
 -4.1582010e-05   6.8017703e-06
  3.2880242e-05   1.3232548e-05
 -3.9344764e-07   1.3167427e-06
  2.4224189e-05   8.9788509e-06
  2.4858791e-02   3.1673264e-06
  3.9793947e-01   2.7189733e-06
  7.4477482e-04   1.6977874e-06
  2.5976414e-04   1.0782833e-07
  7.7270553e-05   8.1137438e-07
 -7.2129973e-05   2.2465028e-06
  7.3627729e-05   2.9545320e-06
  2.0036235e-01   1.3124538e-05
  8.2922089e-01   6.8323520e-06
  1.2654691e-05   1.2938808e-06
 -2.9391509e-05   2.1009932e-06
 -5.0034828e-08   1.6502385e-06
  2.4872874e-05   4.6075507e-07
 -1.8673214e-06   7.2767943e-07
  6.3339729e-05   8.4883368e-07
  1.5919388e-04   1.8801631e-05
  1.0199897e-05   2.8724099e-07
 -3.6656465e-02   5.5956972e-10
  6.5066254e-01   2.7164248e-07
  7.0928347e-01   4.0553564e-07
 -1.6230025e+00   1.0924991e-06
  2.0184861e-01   1.3023637e-08
 -1.2834117e+00   5.6995970e-07
  7.3265724e-02   1.0736500e-06
  1.6928577e-01   1.0891828e-05
  3.3823067e-01   7.4377003e-06
 -2.6034925e-02   2.1782625e-06
  7.2326749e-03   1.4744161e-05
 -2.2783518e-01   5.1582292e-06
 -3.2749531e-01   2.8693541e-06
  5.6851492e-03   5.6050631e-05
  1.8628044e-01   8.0043519e-06
  8.4693515e-01   8.4400235e-06
  1.7116202e-01   1.2167087e-07
 -9.3086660e-02   6.4968685e-06
 -1.4030233e-01   7.3871763e-07
  1.0905491e+00   2.7321778e-06
  6.1017466e-01   1.1290769e-05
  4.8765928e-01   8.4127278e-06
  4.4718629e-01   6.6227190e-06
  3.2090268e-01   2.8362185e-08
  1.7336425e+00   3.0944693e-06
 -4.8368567e-01   3.7567403e-07
 -1.1107436e+00   5.7311621e-07
  5.6926048e-01   1.6701000e-05
  4.9764532e-01   7.6210636e-06
  7.3796785e-01   5.3057393e-06
 -3.5651051e-02   1.5339995e-06
  8.8592595e-01   4.1324387e-07
 -1.8841443e-03   3.8204838e-08
 -1.1303653e-01   2.8836553e-06
  3.4117317e-01   3.3782655e-06
 -5.5258712e-05   3.7049438e-07
 -7.7001481e-05   1.6451930e-05
  1.0208394e-06   1.8532270e-06
 -1.8976227e-05   1.2600797e-06
  4.3740153e-01   3.1600342e-05
 -1.4234015e-01   4.7700005e-06
  3.5873349e-05   1.3465817e-06
 -2.9688792e-02   1.9636350e-09
  3.2066387e-01   2.3195799e-08
  1.6084948e-01   7.7774672e-08
  1.1554971e-01   2.4235771e-09
  9.8579511e-02   2.6139716e-08
  2.5677612e-01   1.2440661e-08
  1.2181900e-01   8.0665155e-09
  2.0363238e-03   9.0857338e-07
  1.5125818e-02   1.0334650e-06
 -3.3901982e-02   1.9504873e-07
 -6.5788575e-02   1.7573732e-06
 -5.0051797e-02   2.4080811e-07
 -9.5303707e-02   7.2701647e-07
  3.7086433e-01   6.9003067e-07
  5.8709960e-03   1.6496008e-06
  4.9635218e-03   1.2492370e-06
  1.7512366e-02   5.8961284e-08
 -6.7577832e-03   1.5856166e-07
 -2.4317069e-02   3.0464952e-07
  7.1667008e-02   3.5398233e-09
  3.9347485e-01   2.3237208e-06
  1.3294382e-02   2.2037339e-07
  5.6232784e-02   3.2043499e-08
  1.0131237e-02   2.3734850e-07
 -2.0801652e-02   5.3478686e-07
 -2.1589583e-02   1.9505347e-08
 -8.8021949e-02   2.4276696e-07
  1.4076622e-01   8.0594327e-07
  7.5676898e-03   2.2923830e-06
  6.6563353e-02   7.9720240e-07
 -1.4814038e-02   3.5276244e-07
  5.7415743e-03   4.6155046e-07
 -1.4816958e-02   1.5562925e-07
 -1.3126963e-02   2.5113911e-07
  3.8618386e-02   4.3501888e-07
 -5.6157511e-02   3.4037355e-05
 -2.6411179e-02   5.4880152e-06
 -1.0639052e-03   5.0740927e-09
 -1.5104968e-03   1.6664455e-07
  2.0667544e-02   4.0768478e-07
 -5.7964791e-02   6.7496735e-08
  2.9519745e-04   5.2958094e-06
  4.2665422e-01   1.0154681e-06
  3.1193164e-01   2.0015095e-06
  3.2830372e-01   9.8284172e-06
  6.1101023e-02   5.6798490e-06
 -7.2641236e-01   1.7739806e-06
 -4.7421981e-02   2.3118753e-06
 -3.3667144e-05   2.4806432e-06
  3.4082703e-05   8.0987656e-06
  6.7791290e-05   1.8035901e-06
 -7.4080250e-05   9.9792142e-06
  6.0445975e-05   1.7770333e-06
 -2.1933026e-04   2.1803919e-07
 -9.4201532e-05   7.8163048e-06
  1.9193492e-05   3.2922831e-06
  1.7659910e-05   2.8839011e-06
  1.8851841e-05   2.2460733e-06
 -1.0973543e-04   4.1279709e-08
  1.6579213e-06   8.4798185e-06
  9.4023424e-05   1.2404756e-06
  4.6664318e-05   1.0773405e-06
 -8.1179605e-05   1.7838177e-07
 -6.8200461e-05   4.7203966e-07
  1.4159950e-05   1.9392030e-07
 -2.3434597e-05   2.6260432e-06
 -7.0200091e-05   2.7862459e-06
  8.1999693e-05   1.2887132e-05
 -4.6991659e-06   1.2043444e-06
  3.3958229e-06   2.2366855e-06
  1.4763842e-05   6.8262575e-06
  3.7074808e-06   1.6780218e-06
  5.5713183e-05   3.3928052e-07
  4.4780847e-07   4.1471494e-06
  5.0894145e-05   2.3234816e-06
  3.8805360e-05   7.5666060e-07
 -3.6691788e-05   6.1853602e-06
  3.3418302e-05   1.9816694e-05
 -8.4146886e-06   1.0053582e-05
  4.7300051e-05   2.7665340e-07
 -1.4296034e-04   2.7526528e-07
 -1.5162252e-04   1.6064728e-07
 -1.0723895e-04   4.3514297e-06
  1.2678499e-05   2.9033622e-06
 -4.0271190e-01   2.1794199e-07
 -1.1987939e+00   5.0629035e-07
 -2.0022137e+00   5.0983840e-07
  7.0518357e-01   1.4193405e-06
 -3.0715292e+00   4.2735198e-08
  9.7862548e-01   5.6826661e-07
 -1.5279484e+00   3.7921984e-06
 -6.4554995e-05   1.5826292e-06
 -3.2834305e-05   3.8754922e-07
  8.3094536e-05   7.3583794e-07
  2.0169067e-05   4.4626499e-06
  2.7893043e-01   9.6724352e-06
  2.0989843e-04   9.1424208e-06
 -4.0622416e-04   6.9114631e-06
 -6.6749686e-05   4.6911232e-06
 -1.0992726e-03   1.7147013e-05
  1.9196337e-05   2.8091711e-06
  1.0509374e-01   1.5654624e-07
  9.8534608e-01   4.1943676e-06
  3.1934326e+00   2.9630710e-06
 -8.8639012e-05   1.7193315e-05
 -7.3125157e-05   1.0178011e-05
 -9.3800798e-02   8.2047536e-06
 -1.6585794e-01   1.9899799e-07
 -5.1390606e-01   4.1872568e-06
 -7.6819432e-01   1.6023537e-07
  2.7817297e-01   1.0365208e-06
  3.6899110e-05   2.1066644e-06
 -3.5400109e-05   1.3036283e-05
 -2.7680525e-01   8.2540946e-06
 -3.8354319e-01   4.2488359e-06
  4.4198284e-01   5.2474786e-07
  2.1417099e-01   7.1295165e-07
 -1.0330240e+00   3.3110935e-06
 -2.2368673e-04   1.0249751e-07
  1.5230069e-05   8.6815962e-06
  7.5633994e-05   5.3984522e-06
  3.0309799e-05   5.6076319e-06
  2.3919805e-05   1.4334083e-05
 -3.2781380e-05   4.0707559e-06
  7.7156161e-05   1.0517507e-05
 -3.4441331e-05   6.6098814e-06
 -2.6391094e+00   1.7158689e-08
 -5.0150847e-01   1.2198938e-06
 -1.1795737e+00   3.9669681e-06
 -1.1650455e-04   3.4596167e-06
  4.9291548e-01   4.2726745e-07
 -2.7723608e+00   7.0461692e-07
 -1.2584709e+00   1.7994846e-06
 -9.9415420e-06   1.2044081e-05
 -1.0536583e-04   1.0450674e-05
 -3.2275613e-05   1.1887767e-05
  5.0319260e-05   6.5524512e-07
 -1.8630521e-05   7.0469991e-06
  8.5609143e-05   1.4070475e-06
  2.4922228e-05   5.7029541e-07
 -5.8509268e-05   9.0990312e-07
 -4.5972225e-05   1.0888017e-06
 -1.8874313e-04   3.9531333e-06
 -3.6985119e-05   2.1069377e-07
  4.0754929e-04   3.7159700e-06
  1.4939255e-03   6.3186003e-06
 -5.5051758e-05   8.2342649e-06
  8.6473847e-05   1.7186781e-05
  1.8344223e-04   1.7553232e-08
 -4.3265916e-02   2.4297931e-05
 -2.9715688e-05   1.3239348e-06
  2.7282706e-05   5.4053021e-07
 -4.4098448e-05   5.6717809e-06
 -2.6048783e-05   9.4931893e-06
  2.6471558e-05   1.3337353e-05
 -9.6461343e-05   7.9680976e-06
 -1.3994941e-04   3.8583339e-06
  1.0117791e-03   1.5800626e-07
  3.7295980e-04   6.6124653e-06
  4.0998531e-04   1.0258011e-05
 -1.1967748e-04   1.0083204e-05
  1.3312841e-05   1.9753118e-06
 -7.3187929e-01   8.2981405e-06
  5.8494465e-05   9.5940086e-06
  1.0302749e-04   7.5017683e-06
  5.4208573e-05   9.1950506e-06
  1.6143300e-04   1.3107883e-05
  3.0285588e-05   3.0770295e-06
  1.9384772e-02   1.0508546e-07
 -1.8357961e-01   8.4963915e-07
 -1.0628484e+00   1.7770404e-06
 -6.8295342e-01   2.4087360e-06
 -9.1754131e-02   7.5002549e-07
 -1.0400058e-01   1.0606946e-06
 -6.2099743e-01   2.5476722e-06
  3.2871871e-05   1.3626151e-07
 -4.3177693e-05   9.9210588e-08
  1.2636998e-04   1.3319878e-06
 -7.4645883e-05   6.8266518e-06
  2.8262541e-03   1.1106687e-05
  3.6679250e-01   5.2679644e-07
 -2.3572318e-05   1.2179852e-05
  1.8101753e-05   3.5370285e-05
 -1.4651459e-05   1.1146030e-06
 -2.0549796e-04   6.0523721e-06
 -2.4503006e-05   7.5496996e-06
  2.6188688e-03   1.0140349e-05
  6.0149789e-02   3.9137258e-09
 -3.8471434e-08   8.6231302e-07
 -6.7535810e-05   1.4919325e-06
  2.5214470e-06   3.0265348e-08
  9.0392912e-04   4.1492631e-06
  2.4797905e-03   8.4958474e-06
  1.9781628e-01   9.6037252e-07
 -8.8751131e-01   5.1300740e-06
  2.5723646e-05   2.9028542e-06
  1.7002787e-04   5.2196610e-06
 -1.0787662e-04   4.2785555e-06
 -4.3729946e-05   1.5040953e-06
 -2.9827776e-05   1.0869410e-05
  1.2516706e-02   7.0008709e-06
  2.8602806e-01   3.9689667e-06
 -1.9666881e-04   1.8119165e-07
 -1.3044393e-05   1.5249069e-06
  6.7173030e-05   1.9771860e-06
  5.0915234e-05   1.9374612e-07
  1.4548866e-06   1.0275781e-05
 -1.1270727e-04   1.3293517e-07
  5.2017474e-04   1.0881543e-07
  2.1219630e-04   9.2618302e-07
 -1.4705994e+00   9.6886410e-08
  2.2438123e+00   9.7495956e-08
  2.8983054e-03   5.8861781e-07
  1.3465708e-01   3.0672496e-07
  2.0361528e-01   8.8426994e-08
 -8.9844579e-01   1.4657134e-07
  1.6296896e-01   1.7885466e-07
  1.2757563e-05   4.3475120e-06
  2.5182383e-04   1.3909846e-05
 -1.7547609e-04   2.1351045e-06
  2.3437420e-05   2.9509222e-06
 -2.3917142e-01   2.5411184e-06
 -2.6265302e-01   9.1912343e-06
 -3.9796061e-05   7.3839728e-06
 -4.1808875e-05   1.6100117e-05
  1.2540244e-01   6.0387351e-06
  2.5136641e-04   1.1080067e-05
 -1.3618687e-01   1.1227874e-06
 -1.1720800e-01   5.0160916e-06
 -2.9118347e+00   1.9855136e-06
  6.8074003e-02   2.4434980e-06
 -2.4625493e-05   1.6938642e-06
  6.8418360e-01   1.1716314e-05
  1.7248188e+00   7.1916015e-06
 -1.6686202e+00   6.0218426e-06
  9.0053624e-01   3.1572067e-06
 -1.5174329e+00   1.6562799e-06
  2.4312247e-01   1.8290659e-05
 -9.4469885e-07   2.3570506e-06
  4.0979552e-01   2.8213776e-06
 -1.6450383e-04   6.6851217e-06
  1.1039621e-01   4.9563946e-06
 -8.6429745e-01   3.2046862e-06
 -2.5120950e-01   2.4956985e-06
  8.7139261e-04   3.1912398e-07
 -1.9516592e-05   1.8961331e-06
  3.9320157e-06   4.7144085e-06
 -2.0692388e-04   2.6647042e-05
 -1.9284198e-05   1.6417683e-06
  1.1406418e-04   3.7290415e-06
 -1.5713055e-04   1.0603716e-05
  5.4983411e-06   1.6356564e-07
  1.9805524e-01   1.4490981e-06
  1.8813679e+00   7.0009412e-07
  1.7869856e+00   5.7168148e-07
  9.2562026e-01   3.4402925e-07
 -2.5736322e+00   8.5240174e-07
 -2.4064176e+00   4.9968818e-08
  2.2158022e+00   4.3023778e-07
 -2.2304434e-02   2.1756694e-05
  3.1024494e-04   1.5515288e-07
  1.5179765e-01   4.6183013e-06
  8.9154072e-04   6.5664710e-05
 -1.6928523e+00   1.6616943e-05
 -6.9801712e-01   4.6681768e-07
  1.4731016e-05   1.3897477e-06
  2.1809094e-05   2.5096255e-05
 -3.2685090e-05   1.5158323e-06
  7.1964926e-01   1.9747411e-05
  4.5851342e-05   7.8707435e-06
 -7.6363506e-03   6.3056718e-06
 -8.1157649e-01   7.5289095e-06
  2.4875083e-06   7.3191627e-06
 -5.8962114e-02   4.2637672e-05
  5.1338017e-01   8.7845422e-07
  1.7026441e-01   2.0510176e-06
  2.3859188e-06   1.6436804e-06
 -2.8290981e-01   7.1320264e-06
 -5.1636640e-02   2.5406726e-07
  7.7501463e-06   9.7081029e-06
 -3.3565587e-01   3.0333018e-05
  7.4297376e-04   1.0808910e-06
 -2.0014498e-02   1.6457356e-05
 -2.6202010e-04   1.9937040e-06
 -3.4313703e-01   8.2236920e-06
 -3.2782194e-01   7.4902910e-06
 -1.7163637e-05   4.3321165e-06
  1.8089911e-05   6.1012804e-07
 -9.3324619e-05   2.9171895e-06
 -1.0689961e-05   3.0406009e-06
  2.2290985e-06   8.9612386e-06
  2.0968682e-05   4.8472771e-06
  8.1285172e-05   1.1276564e-05
 -4.0381125e-05   4.3266414e-06
 -2.5503170e-01   5.3573120e-07
  5.8611506e-01   5.4285613e-07
  8.9562856e-02   1.9985334e-06
  5.9208077e-01   1.8820532e-07
  3.1894124e-03   1.0568834e-07
  1.0383925e-03   3.7257041e-07
  1.6745680e-03   3.6953461e-06
  1.0165842e-04   1.1840677e-06
 -1.9129059e-04   7.9420329e-07
 -1.8772949e-03   6.8584501e-07
  5.3039676e-05   1.1924759e-05
 -3.0599076e-05   3.1757506e-06
  7.6452321e-05   2.4775302e-06
  4.3211407e-05   9.0324335e-07
  6.2652107e-05   1.0932671e-06
  6.0470145e-05   2.4516694e-06
 -9.3283268e-07   5.8482065e-06
  8.5063803e-06   1.2333194e-06
 -7.1128678e-05   6.2645317e-06
 -1.6397895e-02   2.0305683e-06
  4.0234831e-05   2.1163905e-06
  8.0519967e-05   1.6630150e-06
 -3.2934333e-06   3.6596064e-06
  2.3750933e-06   6.5430386e-06
 -1.9014769e-05   9.4853624e-07
 -3.7207406e-03   4.8764541e-06
 -4.4708407e-01   4.0529367e-06
  1.5528964e-05   7.3268166e-06
  4.0796182e-05   2.2605234e-06
 -3.2820732e-05   1.8367070e-06
  1.7360686e-05   2.3346113e-06
  6.1153952e-07   1.4955771e-06
 -3.8141945e-05   4.5366593e-07
 -1.3750074e-04   3.3007461e-06
  1.6126214e-04   4.2369675e-06
  5.0829476e-05   2.2136013e-05
  2.8949717e-06   1.3252103e-05
  4.1604751e-05   1.2803953e-07
  3.3477092e-05   1.5870876e-06
  1.3014809e-05   6.9697421e-06
 -4.6122845e-05   2.9127470e-06
 -5.4485285e-05   6.8084705e-06
 -1.9443952e+00   4.2177982e-07
  3.6898041e+00   8.5959215e-07
 -1.1803509e+00   1.8068862e-06
  1.4566581e+00   5.4711845e-06
  1.1749824e-01   8.6430089e-07
 -1.7860088e+00   9.3469049e-07
  8.7248474e-05   4.5175466e-06
  1.7459994e-05   6.0040321e-07
 -2.5612022e-05   7.3195042e-07
  5.7792429e-05   2.3750698e-07
  6.6253982e-05   7.7531877e-07
 -2.2172296e-04   2.2743265e-05
 -9.9298384e-05   3.6732852e-06
  6.3141837e-05   1.7098417e-06
 -7.7672732e-05   9.1053080e-06
  7.9388001e-06   1.4284204e-06
  6.2437309e-04   2.2536989e-05
 -2.4917763e-05   1.8218915e-06
 -4.1346782e-05   1.3339122e-06
 -2.4251752e-03   6.9221251e-06
  2.6822701e-04   1.1813178e-07
  4.1653420e-05   6.5956469e-06
  4.2574618e-05   4.6201985e-06
  4.0697356e-05   5.2182168e-06
 -1.0112601e-04   1.0361150e-05
 -6.9060825e-06   1.5928480e-06
  1.3905872e-03   4.4623505e-07
  3.8000231e-05   6.5060055e-07
  2.4947547e-05   7.8461117e-06
 -5.1195708e-05   5.0275016e-06
 -6.9666676e-05   3.8423759e-06
 -2.8894208e-05   2.7285461e-07
 -2.3451626e-04   9.1767511e-08
 -5.6205485e-02   7.1536265e-06
  1.6830098e-05   5.8802948e-06
  6.6881876e-05   9.6813517e-07
  7.0090418e-06   3.2308621e-06
 -1.7979582e-05   2.2520257e-05
  5.5068642e-05   4.7205804e-06
 -7.7703451e-05   1.1561972e-06
 -4.6736524e-05   2.4577016e-06
  4.7917219e-05   4.8205806e-07
  1.0165987e-01   9.5289573e-07
 -4.2610314e-01   1.1366080e-06
 -3.7313115e-02   5.3931326e-06
 -4.4268422e-02   4.4568189e-08
 -1.7684299e-04   1.4950901e-06
 -8.9290008e-02   1.1246707e-06
 -6.2314575e-05   2.6187174e-05
  2.9204972e-05   2.9183548e-05
 -1.1163669e-05   1.3126407e-06
  3.6986292e-04   2.6959378e-07
 -4.5231068e-06   1.3169840e-05
  1.0832924e-04   3.6908168e-07
 -3.5153687e-05   6.0042430e-06
 -7.7848068e-05   9.9803528e-06
  1.7040174e-05   6.9499611e-06
  7.8375131e-05   3.4612294e-06
 -9.3980789e-06   3.7778507e-06
 -4.7183832e-05   2.0776000e-05
  1.6388394e-05   8.1299140e-06
 -3.2225224e-05   7.9476940e-06
 -5.9460523e-05   8.1518938e-06
  1.0386765e-05   1.1856067e-06
  3.3629560e-05   5.8530677e-06
 -1.1176984e-03   1.6976766e-06
  1.7516577e-05   8.0826758e-06
  4.4109315e-06   7.0970777e-06
 -3.7859441e-05   1.4635310e-06
  7.4136528e-07   1.7929281e-06
  9.2622931e-06   1.9023814e-06
 -1.6787912e-04   5.2031800e-07
 -3.1541608e-06   1.8237455e-06
 -5.8752707e-05   3.9500683e-06
 -2.0563515e-05   5.6213216e-06
  3.6037090e-05   1.7419746e-06
  2.6334048e-05   1.4036852e-06
 -9.5094954e-05   3.3262757e-05
  6.3947533e-05   3.0662356e-08
 -5.1218398e-05   4.5037641e-06
  7.3496194e-05   4.9257860e-06
 -1.9691484e-04   3.9042939e-06
  1.2012474e-04   1.9700857e-07
  1.0791065e-05   1.0050299e-05
 -3.1931009e-03   2.7950710e-08
 -2.7422443e-01   1.6492281e-07
 -6.5227769e-02   1.6733438e-07
 -1.7453755e-01   4.4534477e-07
 -2.2076124e-03   5.3804836e-08
 -3.8938832e-01   3.5322348e-08
 -1.6305102e-01   1.0008131e-06
 -6.6463588e-05   2.3203322e-06
 -6.0048085e-01   5.2909149e-06
  5.7228327e-02   1.3492202e-06
  1.3624597e-01   1.0598648e-05
  1.4147036e-01   3.4631598e-06
  1.4317320e-01   5.9132059e-09
 -2.3167220e-01   1.5449683e-05
 -5.6679605e-06   4.0272180e-06
 -4.8282075e-01   7.9135475e-07
  7.1729444e-02   1.2262515e-06
  2.0315506e-02   8.3536582e-07
  9.2046596e-02   4.7008197e-07
  3.9899603e-02   1.3802266e-07
 -6.5009487e-01   1.7605566e-06
 -2.9559233e-05   3.4458578e-06
 -2.3334388e-01   1.0659603e-07
 -1.2846783e-01   1.0465552e-06
  1.7756500e-03   4.3629662e-08
  9.9871248e-02   2.9399908e-07
  3.2867130e-02   9.2115710e-07
 -9.9150825e-01   9.2641958e-06
 -3.6483383e-05   1.0678684e-06
 -2.2891906e-01   7.8339599e-07
  1.3565100e-02   5.7504213e-08
  5.4589998e-02   2.6940527e-06
  3.3093866e-02   2.3300038e-06
  3.7530914e-02   1.6902653e-06
 -7.3282468e-01   6.9162816e-06
 -1.8940009e-05   4.5941914e-07
 -1.1650077e-05   2.4161002e-06
  1.6439968e-04   7.6236051e-06
 -2.7038725e-05   1.5437528e-05
  4.3697208e-05   4.1960975e-06
  9.6771233e-02   8.3344712e-06
  8.8655877e-05   2.7583823e-07
  4.1925576e-01   2.2865056e-07
 -2.2390570e-02   5.6541819e-07
  2.6444535e+00   2.7703006e-06
  8.9442849e-01   8.4372675e-07
 -4.5391914e-01   2.1297558e-06
  4.5340517e-01   7.8777890e-07
  7.2433097e-05   6.4898964e-06
  4.0259762e-05   7.1818145e-06
  8.5541193e-05   1.3776110e-05
 -3.7712645e-05   2.4478612e-07
 -3.2937303e-05   2.8303947e-07
  3.7941078e-05   8.7875497e-07
 -2.0244213e-06   9.6306792e-07
 -5.5648825e-06   1.9989709e-05
  3.8971495e-05   6.4026108e-06
  1.8805124e-04   1.7515287e-05
 -1.1701838e-04   8.7448752e-06
 -3.0367057e-05   5.2489344e-07
 -8.7994507e-05   5.5657820e-06
  3.0686333e-05   9.5338322e-07
  7.9887875e-05   8.6478021e-06
 -9.8987712e-06   6.0433572e-06
  5.6955269e-05   4.1811254e-06
 -2.1839066e-06   3.2132396e-06
 -5.2715432e-06   2.3360317e-06
  6.0878298e-04   3.4417205e-06
  8.6308777e-02   2.6317666e-06
  7.9001566e-06   4.7004373e-06
  1.4256201e-04   1.0485494e-05
  1.9111649e-06   5.5246037e-06
 -1.9027315e-05   3.9105061e-07
  4.0288760e-06   2.0059897e-08
 -1.5905624e-05   6.7713545e-06
  2.7830949e-01   8.8477163e-06
 -7.2780522e-06   1.4886753e-07
  1.6560376e-05   1.6208087e-05
 -2.0905389e-04   1.5907117e-08
 -1.6775704e-05   5.8156938e-06
  2.0529989e-04   3.6242682e-06
 -8.6615823e-05   1.8117628e-06
  1.2491636e-04   1.0273494e-07
  1.6007794e-05   9.9376950e-07
  2.1959245e-02   1.2622382e-07
 -5.7185894e-01   2.0456919e-07
 -1.7189209e-01   1.7662956e-07
 -5.9197056e-01   6.7136239e-07
  1.4766514e-02   1.4264081e-07
 -2.8731570e-01   2.7343245e-07
 -4.5906398e-01   1.2378605e-06
 -2.9575449e-05   9.3019307e-06
  6.7195731e-05   8.8143470e-06
  2.0803211e-03   1.7261940e-06
  2.9897581e-05   8.2624629e-06
  4.1069472e-01   2.5975880e-06
  1.0909167e-01   4.2528309e-06
 -3.1776231e-05   5.2053219e-06
  2.5706175e-05   6.2940035e-07
 -3.2628819e-04   5.5101759e-06
 -5.0557139e-03   6.6526813e-06
  2.6104415e-03   1.0288256e-06
  1.1943822e-01   3.8174139e-07
  4.6700787e-02   2.6242415e-06
 -3.2441199e-03   1.6569880e-05
 -1.6994549e-04   6.2560537e-07
  4.0749645e-05   3.1314578e-06
 -1.6362814e-02   5.1889586e-09
  2.2678036e-02   4.5146221e-06
  5.6145675e-02   1.1061921e-06
  1.2218979e-01   1.7292896e-06
 -2.8270857e-02   2.9946284e-07
 -4.5864148e-05   9.8929022e-06
 -2.4787584e-02   1.1747999e-05
  1.0086899e-04   2.0845196e-06
  2.3433779e-06   2.8037980e-06
  8.5230097e-03   1.0796495e-06
  6.8436772e-02   1.0552715e-06
 -1.2886623e-02   1.2768651e-05
  5.7289908e-05   6.6043646e-07
  4.3271134e-06   2.2905309e-07
 -3.2255512e-06   1.0083847e-06
  3.6474681e-05   8.5005131e-06
 -1.4543218e-04   2.3478744e-06
  2.8390738e-03   3.7413989e-07
  1.0558802e-05   1.5922665e-06
 -8.6145767e-05   7.6135763e-08
  6.8602320e-05   2.6618936e-06
  2.5681290e-06   1.1499661e-06
 -6.7417364e-05   1.3575681e-06
  8.9566005e-05   2.1794276e-06
 -3.9875353e-04   1.9444576e-06
 -4.0004194e-05   1.7935685e-06
 -2.4139721e-05   1.3117045e-05
 -1.4654189e-05   1.8498215e-06
  1.2757642e-05   2.5947143e-06
  4.5627752e-05   3.0264018e-06
 -6.6157321e-05   1.3510025e-06
  7.3207688e-05   2.7586407e-06
 -1.1603856e-05   2.5519914e-06
 -3.7912650e-07   1.4937767e-07
 -3.1750053e-05   4.8266747e-07
  1.6203476e-05   1.2639482e-05
 -2.0768681e-05   5.1024344e-06
  3.3051343e-05   4.0161103e-06
 -1.0843833e-04   6.5105373e-06
 -1.3767658e-05   2.8908257e-06
 -4.2865351e-05   2.8890992e-07
 -2.1596774e-05   2.3216866e-07
  1.9688792e-05   1.1509590e-05
 -2.9613073e-05   1.2167355e-05
  5.4338805e-05   6.2605609e-06
 -3.5704124e-06   6.9212574e-06
  1.5208561e-05   6.8615309e-06
  1.0704284e-04   3.4111619e-07
  9.0197893e-05   1.4980124e-06
 -2.0181506e-05   2.3773491e-06
  1.6281227e-04   3.0123837e-07
 -2.4041168e-05   5.7922871e-06
  1.6568689e-05   4.6264597e-07
  3.0061354e-05   5.0153727e-07
  8.3140330e-05   1.8190973e-07
 -4.4225268e-05   2.0654308e-05
  1.5662315e-04   3.7384300e-06
 -1.6934380e-05   1.0185908e-05
 -1.1093241e-04   9.9952877e-06
 -5.8713988e-05   5.2919354e-06
  2.4133808e-05   1.8979041e-06
  5.6477453e-05   2.5226698e-06
 -6.4654712e-05   5.6610097e-06
 -4.5951869e-04   2.1859944e-07
  3.8728787e-05   3.0179732e-09
 -2.2869481e-04   2.9376602e-07
  6.1549991e-04   1.4479815e-08
 -1.6654833e-05   1.0643672e-06
  2.1186093e-04   1.1156211e-06
  8.2522756e-06   2.7421521e-07
  5.2264357e-05   6.0868451e-06
  4.9526825e-05   7.4887967e-06
 -5.8739817e-05   4.4466515e-06
 -3.4881907e-07   7.8552011e-06
  1.1676077e-04   3.3657743e-06
  2.0488287e-05   1.0892275e-06
  3.7602273e-05   1.1227033e-06
  1.9229969e-06   1.9783941e-07
 -1.9243002e-05   1.4053613e-06
 -7.3556803e-05   1.2024223e-05
 -1.0371991e-05   4.1453900e-06
  1.3312793e-04   2.0085843e-06
 -1.0955209e-04   1.2956124e-06
  2.0263738e-04   4.8953922e-07
  7.6340075e-05   3.2795508e-06
 -9.6053745e-06   2.4914566e-06
  1.3809188e-05   8.1259705e-06
  4.4386697e-06   1.0820626e-06
  4.2117658e-06   5.9175713e-06
  1.1382347e-03   3.9165471e-07
 -1.5394457e-05   2.1989297e-06
 -6.2037134e-06   1.0983763e-05
 -2.0930557e-04   9.5392934e-06
 -5.3144908e-05   2.0769880e-06
  3.9125833e-05   1.1333605e-05
 -2.5287492e-04   1.1014432e-06
 -1.8405573e-05   4.7109793e-06
 -3.4888744e-05   8.6251275e-06
  2.8024437e-05   1.4143806e-06
 -3.6845142e-06   1.2605346e-06
 -3.4154541e-06   1.0650732e-05
 -3.4823726e-05   2.1119699e-06
 -3.5093428e-05   1.2690656e-06
 -1.9201070e-01   2.9098251e-07
  2.5101893e+00   5.1861306e-08
  1.9076508e+00   1.6073944e-06
  1.1656651e-01   2.5916772e-06
 -1.1383691e-01   5.4220220e-07
  3.5712793e-01   1.7395267e-06
  9.9885744e-01   5.5116209e-07
 -1.1178598e-05   4.8587085e-06
  4.3049240e-05   1.4979333e-06
 -2.4182455e-05   1.7170705e-06
 -1.2535127e-04   1.7156648e-07
 -3.8941321e-03   8.2980216e-07
 -1.6569550e-04   5.4714644e-07
 -5.1333067e-05   1.0452432e-05
  1.5824919e-05   6.8605527e-07
 -1.3440104e-04   3.3023985e-06
 -7.1375907e-05   8.0728823e-06
 -9.2707369e-06   1.5911688e-06
 -6.7294184e-03   1.3057536e-05
 -2.1346675e-01   6.3680759e-06
  2.0935697e-05   6.4238026e-07
 -1.4204857e-06   2.2737577e-06
  6.8855542e-01   5.7386892e-06
 -1.9316219e-03   1.0127197e-05
 -1.1637298e-03   1.0875569e-07
 -1.0143518e-01   1.7188274e-06
  7.1625376e-01   2.6465682e-06
  2.1293872e-05   2.0798345e-05
  1.1757505e-05   5.4901911e-06
  1.8973282e-06   3.6023412e-06
 -2.0466304e-04   2.7834860e-06
  6.4050808e-05   5.0404594e-07
 -6.4263065e-07   6.2758390e-06
  4.7580168e-02   6.8160510e-08
  1.7459822e-06   4.1856342e-06
 -1.3643550e-04   3.0529009e-05
 -2.8618283e-04   1.6641450e-06
  5.1798823e-05   2.1870670e-07
  7.8296231e-05   3.6662396e-07
 -3.5290024e-05   9.2740847e-06
 -2.0764997e-05   1.8580789e-06
  1.3001589e-04   1.1931953e-05
  4.0021202e-01   5.6004325e-07
  1.4240756e+00   7.4746119e-08
  7.8819734e-01   1.0381096e-07
 -2.0932885e-02   1.9973529e-06
 -9.8149195e-02   1.2094008e-06
 -1.3342535e+00   1.0371323e-06
 -4.7761431e-01   7.8791311e-07
  1.1561409e-04   8.8725592e-06
 -3.1424282e-04   1.4395046e-06
 -1.7890625e-05   4.9530427e-06
 -5.9139315e-06   1.4080903e-06
  4.7605687e-01   1.2443554e-05
 -1.8113659e-04   1.2879249e-05
 -1.0875277e-04   1.3311990e-06
 -8.4212907e-06   2.3046625e-06
 -1.4099620e-05   2.1981201e-05
 -2.7483357e-02   1.0573454e-05
  2.1189146e-05   1.7611852e-05
  1.6401362e+00   2.5931479e-06
 -1.2964059e+00   7.4722830e-06
 -3.2331136e-05   2.3334348e-06
 -6.7475259e-05   1.5310343e-05
 -2.6354593e-01   6.7063928e-07
 -9.9679780e-01   2.7232440e-07
  4.5046827e-04   4.0103473e-06
  3.5650632e-01   1.1243260e-06
  1.3502659e-02   1.2884553e-06
  4.9918064e-05   5.9304834e-06
  1.6888072e-04   1.4824802e-05
 -4.4216405e-04   2.9074054e-05
 -2.3712468e-01   2.1034209e-06
 -2.8777176e-06   4.5443790e-06
  1.2871415e-02   2.2019794e-06
  3.1507641e-02   1.0292548e-05
 -1.3456428e-04   3.5247556e-06
  1.0876072e-05   4.5593256e-06
  7.1541021e-05   4.3421715e-06
  1.8017409e-04   1.8301582e-08
 -1.0808533e-05   2.3077428e-06
  2.3508286e-05   1.1298943e-05
  3.2923854e-04   5.3116669e-06
 -6.0483490e-05   3.5620264e-06
 -4.9219531e-04   2.5959397e-07
  1.5838651e-04   7.6908137e-08
 -1.6770705e-04   2.3410766e-07
 -1.4254719e-04   4.5820920e-07
 -1.5415847e-06   1.7265774e-07
  4.3724854e-06   5.6792891e-07
  1.7620136e-05   1.6307747e-06
 -1.0699044e-05   1.0525838e-05
 -1.4597710e-04   1.2649191e-06
  2.9611516e-05   5.8986188e-07
 -2.7132333e-05   4.2434563e-06
  3.6464484e-05   1.5375859e-07
 -1.3883137e-05   4.8247339e-06
  7.4943302e-05   1.1805988e-06
 -1.3683553e-05   9.8221994e-07
  2.1624874e-04   3.6530733e-07
  2.6598484e-05   1.1995518e-05
 -7.0355300e-06   1.3183691e-06
 -2.8356878e-06   9.2409609e-06
  5.2251748e-06   8.9520254e-06
  3.5820936e-05   2.6057555e-06
  3.7585516e-05   6.4973108e-08
  2.1672783e-04   1.5674539e-06
  2.9710089e-04   1.7336986e-07
 -5.2103023e-05   6.1900355e-06
 -2.6972657e-06   8.8008555e-06
  2.7429302e-05   2.7249837e-06
 -1.0054391e-04   1.4380471e-06
 -2.0708767e-05   1.8781743e-06
  8.0194244e-05   2.2930226e-06
  6.7381050e-05   3.6306494e-07
  1.0965775e-05   1.6508683e-06
 -4.1784726e-05   9.8837506e-07
  1.0499136e-04   4.3905247e-06
 -8.2675751e-06   1.6130975e-06
  1.3206534e-04   1.5892239e-07
  6.9974349e-06   1.3957282e-05
  9.7172078e-06   7.1988084e-06
 -2.1275780e-06   8.5184583e-06
 -1.2531979e-05   1.0933082e-05
  8.9910727e-06   2.3194602e-06
  4.3920209e-06   1.0821766e-06
  1.0349442e-02   5.6104051e-07
 -5.6073576e-01   5.6360307e-07
 -6.4661580e-01   1.1294342e-06
 -3.3344236e-01   6.9340467e-07
 -1.5205874e-01   1.5404270e-07
 -1.1239059e+00   3.8767499e-07
 -3.5759561e-02   7.2271669e-06
 -8.6639709e-05   2.5381148e-06
 -2.5895133e-05   1.2755841e-07
  4.2555876e-05   2.7373683e-06
 -2.4040876e-04   8.3516761e-06
  2.2851260e-02   6.7224510e-06
  6.7758425e-05   4.0769642e-06