160
lattice="13.271847 0.0 0.0 0.000233 9.195142 0.0 0.0 0.0 40.0" energy=12.99485944 virial="87.22708334843881 2.381079782644208 -1.9613874689703716 2.381079782644208 86.65188398801426 2.0038594170837163 -1.9613874689703716 2.0038594170837163 88.10077458523817" properties=species:S:1:pos:R:3:force:R:3
Ne 1.10385 0.88425 12.59659 0.551083 0.031212 -0.444064 
Ne 13.10451 3.40202 12.4593 0.130362 -0.045314 -0.285339 
Ne 11.74006 5.67967 12.45751 0.06749 -0.160193 -0.220185 
Ne 10.49464 7.67495 12.81643 -0.129776 0.177715 -0.409834 
Ne 9.37849 0.97502 12.47283 0.100576 -0.031856 -0.341994 
Ne 3.90739 1.0092 12.56576 -0.249988 -0.130425 -0.503436 
Ne 2.32916 3.22617 12.61033 0.145726 -0.077575 -0.374367 
Ne 1.35649 5.5461 12.85324 -0.397016 -0.134467 -0.405537 
Ne 13.01812 7.71082 12.715 0.076074 0.102572 -0.175717 
Ne 12.11525 0.98503 12.66669 -0.464333 -0.156059 -0.655252 
Ne 6.44006 0.65156 12.55173 0.090169 0.120748 -0.211201 
Ne 5.29313 3.13729 12.65095 0.055777 0.013678 -0.397624 
Ne 3.79503 5.30082 12.54552 0.011652 0.121891 -0.254983 
Ne 2.25346 7.67839 12.91286 0.254584 0.376338 -0.57508 
Ne 7.77885 2.78396 12.68554 0.098447 0.296921 -0.164105 
Ne 6.22896 5.55037 12.5688 0.090418 0.080424 -0.226732 
Ne 4.95612 7.94655 12.55154 -0.017561 -0.299073 -0.307956 
Ne 10.70148 3.50501 12.59905 -0.360188 -0.303993 -0.525413 
Ne 8.71299 5.57013 12.71039 0.353709 -0.17173 -0.382114 
Ne 8.0059 7.85816 12.5361 -0.08997 0.129748 -0.383326 
Ne 0.10716 0.20497 14.66129 -0.47685 -0.157828 0.323147 
Ne 11.76229 2.25956 14.53049 0.279609 0.437264 0.295356 
Ne 10.36155 4.43027 14.67808 0.033666 0.571365 0.059944 
Ne 9.09388 7.13093 14.8516 0.00102 -0.140587 0.122447 
Ne 8.02905 0.29623 14.57577 0.038996 -0.176379 0.067606 
Ne 2.41829 0.18284 14.76168 0.265554 0.10646 -0.013824 
Ne 1.17129 2.52835 14.6565 -0.07502 0.012359 -0.038935 
Ne 12.9763 4.70629 14.62796 0.036661 0.13124 0.056669 
Ne 11.52738 6.96147 14.91137 0.321103 0.030255 0.016168 
Ne 10.56899 0.25488 14.51567 -0.004833 -0.339106 0.333845 
Ne 4.8504 0.13365 14.73417 0.361736 0.015396 -0.024786 
Ne 3.84606 2.39875 14.44641 -0.135013 0.176158 0.373504 
Ne 2.51006 4.7972 14.78434 0.1173 -0.124875 0.118822 
Ne 1.16253 7.1085 14.93948 -0.279258 -0.209523 0.095184 
Ne 6.50246 2.09913 14.83154 -0.072178 0.247302 0.0714 
Ne 5.10647 4.55597 14.69466 0.066627 0.125531 0.158205 
Ne 3.83879 7.07869 14.62238 0.138647 -0.194571 0.201321 
Ne 9.29118 2.38262 14.91807 -0.276957 -0.18647 -0.294174 
Ne 7.69932 4.71425 14.64128 -0.108522 -0.161243 0.167184 
Ne 6.70264 7.3023 14.54409 -0.333916 -0.344298 -0.203494 
Ne 13.26997 1.78147 16.80683 0.091157 -0.273196 -0.144711 
Ne 11.80093 4.01538 16.72993 0.371973 -0.266121 0.118711 
Ne 10.53103 5.86125 16.86816 -0.298781 0.480165 0.084922 
Ne 9.39174 8.39341 17.03773 0.038052 -0.076241 -0.44008 
Ne 8.03131 1.57998 16.99704 -0.191646 -0.047747 -0.367163 
Ne 2.59649 2.02742 16.68314 -0.181967 -0.374244 -0.163618 
Ne 1.16551 3.97016 16.75457 -0.096692 0.368996 0.111046 
Ne 12.95261 6.4358 17.056 0.175692 -0.241821 -0.187476 
Ne 11.91748 8.71638 16.97713 0.082697 -0.022263 -0.153138 
Ne 10.83141 1.81023 16.81162 -0.285898 -0.262161 0.09441 
Ne 4.92026 2.02424 16.84996 0.318615 -0.259351 -0.129911 
Ne 3.859 4.24821 17.06666 -0.002139 -0.180188 -0.125002 
Ne 2.59532 6.30823 16.79703 -0.067063 0.125028 0.190282 
Ne 1.41259 8.61435 16.89315 -0.161867 0.1042 0.211808 
Ne 6.53167 3.89586 16.93357 -0.115117 -0.341567 -0.133115 
Ne 5.20959 6.18797 16.75624 0.110387 0.160932 -0.255375 
Ne 3.95507 8.83327 16.91245 -0.0427 -0.20304 -0.179043 
Ne 9.15755 3.82221 16.77564 -0.000792 -0.083568 0.244182 
Ne 7.84304 5.79076 16.94159 0.0458 0.548838 -0.196472 
Ne 6.61927 8.46381 16.51068 -0.0398 0.265355 0.289218 
Ne 1.1819 0.57985 19.27781 0.10217 0.253937 -0.248658 
Ne 0.03962 2.9219 18.87707 0.188598 0.189218 0.155542 
Ne 12.01868 4.89366 19.2771 -0.19883 0.451397 -0.296635 
Ne 10.77699 7.45329 18.90348 -0.059674 0.035669 -0.077113 
Ne 9.00942 0.58436 18.85552 0.26262 0.179708 0.319989 
Ne 3.67848 0.8051 18.93379 0.042615 0.04397 0.13149 
Ne 2.56602 2.98804 18.81391 -0.092221 0.149986 0.344154 
Ne 1.34166 5.3873 19.08372 -0.253097 -0.314254 -0.312715 
Ne 0.06886 7.49655 19.11987 -0.141521 0.229233 -0.115539 
Ne 11.93407 1.00745 19.02072 -0.189759 -0.375109 0.027416 
Ne 6.38671 0.84049 18.82039 0.176502 -0.100383 -0.28165 
Ne 5.19954 2.89681 19.09464 0.060987 0.303996 0.021802 
Ne 3.67121 5.38677 19.22681 0.312073 -0.120073 -0.211299 
Ne 2.65181 7.73352 19.03896 0.063547 -0.037097 -0.169922 
Ne 7.96646 2.9798 19.01675 -0.131381 0.077868 0.104946 
Ne 6.25447 5.3049 18.92446 0.088274 0.016672 0.126439 
Ne 5.16804 7.63431 18.67587 -0.010044 -0.140517 -0.090776 
Ne 10.48575 3.0593 18.99508 -0.02258 -0.059508 -0.159636 
Ne 9.2038 5.37557 18.95925 -0.012748 -0.157899 -0.206911 
Ne 7.66318 7.6118 18.60554 0.046332 -0.06738 0.222009 
Ne 13.21645 9.04712 21.13602 0.107638 0.141226 -0.021951 
Ne 12.16923 2.30329 21.14127 -0.198802 -0.225826 -0.018051 
Ne 10.22946 4.40297 21.12646 0.432807 -0.010262 0.033457 
Ne 9.27099 6.62026 20.90094 0.118381 0.139829 0.213004 
Ne 8.21235 8.71161 20.89033 -0.459864 0.353663 -0.049885 
Ne 2.63994 9.00387 21.31286 0.014519 0.092941 -0.136694 
Ne 1.37344 2.4116 21.3011 -0.163875 -0.434038 -0.310634 
Ne 13.24644 4.44032 21.17774 0.123294 0.260742 0.13084 
Ne 11.84511 6.90566 21.01493 0.036371 -0.229799 0.118886 
Ne 10.43852 9.06421 20.8942 0.653667 -0.065819 -0.044192 
Ne 5.32611 8.91081 20.57252 -0.100027 0.245831 0.582612 
Ne 3.94709 2.19493 21.03495 0.099267 -0.20466 0.200005 
Ne 2.70368 4.27735 21.1808 0.092644 0.397642 -0.038694 
Ne 1.46591 6.81162 20.93827 -0.014067 -0.031687 0.525308 
Ne 6.82426 1.75926 21.19286 -0.188365 0.202238 -0.324143 
Ne 5.52032 4.36004 21.15796 -0.332879 0.019199 -0.048247 
Ne 4.17004 6.79401 21.00712 -0.031369 -0.007963 0.204159 
Ne 9.61511 2.04773 21.04792 -0.298696 0.139535 -0.105827 
Ne 7.87568 4.5339 20.9819 -0.02742 -0.108769 0.076278 
Ne 6.74057 6.82399 21.00048 -0.222046 -0.233523 -0.182078 
Ne 0.0439 1.44331 23.37405 -0.153343 0.105997 -0.055072 
Ne 11.79334 3.59868 23.18865 0.114913 0.153054 0.157095 
Ne 10.59839 5.95707 23.08232 0.089261 -0.022516 -0.020995 
Ne 9.5124 8.20293 23.02622 0.059013 0.164416 0.17962 
Ne 8.18146 1.43284 23.00664 -0.227639 -0.212976 0.152006 
Ne 2.52541 1.46219 23.15175 0.361407 0.195219 0.255678 
Ne 1.24097 3.91315 23.27123 -0.017275 -0.12319 -0.037293 
Ne 0.02195 6.1734 23.02187 0.013647 0.030158 0.07478 
Ne 12.08161 8.45267 23.02091 -0.231948 -0.113755 0.38878 
Ne 10.45976 1.35624 23.22432 0.675869 0.010637 -0.079625 
Ne 5.3083 1.56085 23.23125 -0.186154 -0.041688 -0.286895 
Ne 4.08719 3.89858 23.27348 -0.038724 -0.358531 -0.146216 
Ne 2.71533 5.9972 23.07855 -0.029278 0.150158 -0.169691 
Ne 1.41054 8.61168 23.61482 -0.079868 -0.377795 -0.214273 
Ne 6.79814 3.79042 23.14386 -0.083375 -0.011829 -0.005094 
Ne 5.28244 6.07516 23.22544 0.205733 -0.02009 -0.160374 
Ne 3.99375 8.1815 23.18011 0.240724 0.338763 -0.059962 
Ne 9.28058 3.57236 23.30453 0.159147 0.270352 -0.254371 
Ne 7.85056 6.51157 23.1803 0.10333 -0.617127 0.087428 
Ne 6.71246 8.51398 22.79207 -0.317187 0.247767 0.220118 
Ne 1.5005 0.56561 25.76731 -0.121026 0.029193 -0.191973 
Ne 0.4281 2.89005 25.371 -0.497228 0.097652 -0.149425 
Ne 12.3055 5.41083 25.37392 -0.064746 -0.656024 -0.223952 
Ne 10.87831 7.28874 25.25934 -0.409779 0.362826 -0.126633 
Ne 9.48288 0.77629 25.2537 -0.302985 -0.101201 -0.227035 
Ne 4.03784 0.89325 25.3246 0.03537 -0.229138 -0.146054 
Ne 2.70426 3.03922 25.30974 0.584407 0.016703 -0.380426 
Ne 1.66671 5.36725 25.12358 -0.236243 0.038915 0.211885 
Ne 13.23318 7.4521 25.30515 0.426903 0.427782 -0.029467 
Ne 11.9125 0.60247 25.34698 0.273592 0.082656 -0.407284 
Ne 6.77838 0.76429 24.94865 0.01196 -0.392597 0.222493 
Ne 5.65099 2.82809 25.3632 -0.396596 0.353541 -0.283847 
Ne 4.31999 5.06002 25.31063 0.002186 0.156734 0.113921 
Ne 2.97666 7.45252 25.19347 -0.018646 0.105961 0.225643 
Ne 8.01452 2.89215 25.11397 0.206497 0.037213 0.309684 
Ne 6.8492 5.19634 25.23347 0.168356 0.076666 -0.085609 
Ne 5.52104 7.35799 25.32577 -0.111203 0.379911 -0.286501 
Ne 11.1962 3.06098 25.64172 -0.116017 -0.178817 -0.51134 
Ne 9.72413 5.06099 25.20492 -0.143051 0.061899 -0.035405 
Ne 8.14274 7.82758 25.23326 0.065018 -0.255422 -0.202621 
Ne 13.04709 9.00443 27.32464 0.254671 -0.245191 0.483311 
Ne 12.49627 2.11002 27.4151 -0.081358 0.129604 0.479917 
Ne 10.96067 4.42655 27.47603 -0.122976 0.067676 0.531336 
Ne 9.35613 6.65603 27.24627 0.05985 0.349115 0.253777 
Ne 7.96548 9.05409 27.19877 0.137093 0.193315 0.464376 
Ne 3.07282 0.16833 27.48152 -0.133118 -0.108446 0.471031 
Ne 1.75162 2.5793 27.31114 -0.017259 -0.183846 0.837617 
Ne 0.21476 4.72363 27.38329 0.148334 -0.073752 0.299293 
Ne 11.865 6.75199 27.54103 0.111149 0.10901 0.342598 
Ne 10.58681 9.14356 27.13595 -0.108228 -0.267357 0.672068 
Ne 5.52779 0.09372 27.39506 0.002261 -0.176189 0.136355 
Ne 4.43239 2.38297 27.42907 -0.410224 0.079525 0.356761 
Ne 2.87446 4.84655 27.20755 0.040616 -0.151628 0.462837 
Ne 1.58353 6.99286 27.24256 -0.161357 0.138043 0.285742 
Ne 6.80293 2.22697 27.28372 0.470264 -0.039911 0.483708 
Ne 5.70592 4.52779 27.4055 -0.052328 0.126674 0.328084 
Ne 4.12843 6.99186 27.46061 0.100128 -0.01088 0.281402 
Ne 9.44008 2.17455 27.14691 -0.043943 0.174127 0.504246 
Ne 8.36309 4.5822 27.15641 -0.249464 -0.359271 0.361354 
Ne 6.71156 6.86838 27.21865 0.202313 -0.113043 0.544602 
160
lattice="13.271847 0.0 0.0 0.000233 9.195142 0.0 0.0 0.0 40.0" energy=13.65630445 virial="89.8056851107235 2.857472451726175 -3.9145486639159204 2.857472451726175 87.66228371203353 0.31716856517928377 -3.9145486639159204 0.31716856517928377 91.1231076619581" properties=species:S:1:pos:R:3:force:R:3
Ne 1.15974 0.74994 12.69489 0.121097 0.022539 -0.258523 
Ne 13.14053 3.02631 12.74047 0.107969 -0.229337 -0.390414 
Ne 12.14632 5.15241 12.70948 -0.279379 0.448158 -0.15669 
Ne 10.61263 7.77403 12.65046 0.321601 -0.539072 -0.485431 
Ne 9.4347 0.50958 12.5954 -0.425765 0.46569 -0.291603 
Ne 3.6847 0.63138 12.58686 0.180855 0.040254 -0.398268 
Ne 2.70801 2.91218 12.47673 -0.153804 -0.090791 -0.293414 
Ne 1.28188 5.02477 12.54629 0.033705 0.062942 -0.264749 
Ne 0.06522 7.69183 12.59042 -0.751431 0.019079 -0.315855 
Ne 11.94213 0.72312 12.84016 0.075584 0.087627 -0.47316 
Ne 6.71628 0.69909 12.80162 -0.030013 -0.043966 -0.350763 
Ne 5.24345 2.89234 12.55576 0.056232 -0.123316 -0.278224 
Ne 3.91616 5.05239 12.54198 0.056985 0.312409 -0.241724 
Ne 2.23553 7.2539 12.47567 0.878097 0.104168 -0.490474 
Ne 7.84778 3.12935 12.85808 0.220228 0.218895 -0.665567 
Ne 6.46622 5.26675 12.63314 0.114202 0.103416 -0.272012 
Ne 5.15601 7.80873 12.55793 -0.022606 -0.168104 -0.293249 
Ne 10.56705 3.14566 12.58456 -0.093864 -0.202138 -0.261486 
Ne 9.3628 5.30274 12.9051 -0.215743 0.151268 -0.453734 
Ne 7.72375 7.57775 12.72533 0.239028 -0.046215 -0.400419 
Ne 0.04926 0.14441 14.90452 0.089476 -0.000407 -0.158986 
Ne 11.86937 2.36638 14.70512 -0.016599 0.03259 0.070668 
Ne 10.64577 4.64438 14.77517 0.072308 -0.075108 0.234153 
Ne 9.60059 7.07073 14.65327 -0.266289 -0.257486 0.219407 
Ne 7.90003 8.9272 14.92766 -0.021112 0.338064 -0.348994 
Ne 2.783 8.88343 14.56324 -0.350756 0.053273 0.014913 
Ne 1.3141 2.48389 14.63152 -0.082192 -0.408913 -0.103245 
Ne 0.07101 4.69465 15.04814 -0.16564 0.166835 -0.15696 
Ne 12.1126 7.12231 14.99888 -0.152604 -0.229574 -0.374745 
Ne 10.64645 0.01772 14.70107 -0.001201 0.168064 0.268745 
Ne 5.0869 9.14534 14.78791 0.453781 0.154008 -0.201509 
Ne 3.87783 2.20669 14.75626 0.084557 0.01924 -0.199262 
Ne 2.57806 4.45358 14.57161 0.228405 0.376832 0.167688 
Ne 1.24223 7.04292 14.55776 0.066339 -0.414385 0.43176 
Ne 6.71233 2.26857 14.60306 -0.34318 -0.114596 0.623891 
Ne 5.36818 4.37057 14.67311 -0.131793 0.119753 0.147683 
Ne 4.21654 6.84323 14.69275 -0.294585 -0.296275 -0.080495 
Ne 9.09542 2.17498 14.65664 0.303349 0.030874 0.118773 
Ne 7.99972 4.92491 15.13559 0.083681 -0.329301 -0.253388 
Ne 6.66981 6.83751 14.73552 -0.016308 0.108811 -0.28156 
Ne 0.01546 1.63073 16.80189 -0.226658 -0.238049 0.150742 
Ne 11.76631 3.65396 16.88426 0.055561 0.341466 0.195279 
Ne 10.38342 6.0788 16.92009 -0.007568 -0.140438 -0.051538 
Ne 9.26105 8.60109 16.7758 0.236744 0.002677 0.169545 
Ne 8.19546 1.81139 17.07542 -0.334728 -0.238373 -0.157516 
Ne 2.50988 1.15876 16.52974 0.004786 0.361144 0.027177 
Ne 1.27964 3.54121 16.75272 -0.128262 0.452311 0.342507 
Ne 12.796 6.20432 17.10598 0.424728 -0.152345 -0.158012 
Ne 11.99157 8.57238 16.89082 -0.149283 0.067562 0.175685 
Ne 10.53398 1.64098 16.68248 0.079594 -0.118461 0.169524 
Ne 5.32927 1.6104 16.71194 -0.167274 0.331518 -0.123111 
Ne 3.5844 3.63432 16.82441 0.470238 0.061614 -0.027098 
Ne 2.85917 6.02083 16.81265 -0.029921 0.021067 -0.236786 
Ne 1.38727 8.24648 16.77148 -0.107797 -0.189517 -0.034131 
Ne 6.30481 3.9843 17.01013 -0.043498 -0.048107 -0.289934 
Ne 5.62587 6.36276 16.70583 -0.493122 -0.186265 0.298315 
Ne 3.98768 8.51198 16.85994 0.01826 -0.360595 -0.203383 
Ne 8.66194 4.05387 17.29415 0.563058 0.291817 -0.147902 
Ne 7.97303 6.59514 16.92976 0.0494 -0.142735 0.017644 
Ne 6.48622 8.76326 16.83455 0.228991 -0.465813 -0.226312 
Ne 1.47016 0.77187 18.7574 -0.302657 -0.217895 0.014041 
Ne 0.01524 2.93346 19.12756 -0.258468 0.201023 -0.219624 
Ne 12.03842 5.44601 19.15577 -0.148139 -0.042939 -0.063117 
Ne 10.42508 7.52843 18.89684 0.393667 0.125305 0.04345 
Ne 9.27387 0.50065 18.94417 0.027086 0.265381 0.054048 
Ne 3.89179 0.73399 18.71523 0.183359 0.247414 0.340398 
Ne 2.43823 2.95213 18.88489 0.328946 0.280624 -0.019881 
Ne 1.54763 5.56544 18.8842 -0.367717 -0.384576 -0.028551 
Ne 0.21977 7.78489 18.90993 -0.287974 0.081716 0.113039 
Ne 11.83435 0.8266 18.88636 0.046867 0.002436 0.049756 
Ne 6.4956 0.85891 18.63469 0.118918 0.190652 0.805217 
Ne 5.1376 3.1519 18.87213 -0.214214 -0.197716 0.169935 
Ne 3.97289 5.29178 19.10835 -0.033119 0.06768 -0.176122 
Ne 2.78287 7.56212 18.7979 0.064609 0.173297 0.197162 
Ne 7.63672 3.23471 19.22779 -0.016059 -0.196328 0.190109 
Ne 6.3622 5.49261 19.02557 0.21089 -0.204585 -0.055647 
Ne 5.29296 7.69861 18.84191 0.105824 0.174616 -0.02993 
Ne 10.48068 3.19075 19.11259 0.045438 0.012239 -0.242878 
Ne 9.06575 5.54763 19.29429 0.153913 -0.287346 -0.321039 
Ne 7.88007 7.55618 19.1131 -0.11584 0.578014 -0.26942 
Ne 0.05434 0.18711 21.13827 -0.071695 -0.14955 -0.01045 
Ne 11.89369 2.25544 21.13518 0.168402 0.12911 -0.224039 
Ne 10.67043 4.86123 21.06671 0.103572 -0.07005 0.136207 
Ne 9.277 7.25321 21.10818 0.066447 -0.081029 0.209389 
Ne 7.87629 0.60787 20.93089 -0.477784 -0.632838 -0.102525 
Ne 2.64961 9.05291 20.8746 0.022512 0.00131 0.107202 
Ne 1.4646 2.09552 20.86544 -0.265929 0.166208 0.471411 
Ne 0.11111 4.70215 20.96994 0.068473 -0.145551 0.188596 
Ne 12.18836 7.03855 21.3445 -0.221948 -0.255154 -0.455331 
Ne 10.773 0.06364 21.08527 -0.045634 -0.083961 -0.176358 
Ne 5.07229 0.26783 21.28696 0.144262 -0.281315 -0.168145 
Ne 3.75962 2.32642 21.15238 -0.124945 0.038345 -0.003795 
Ne 2.76171 4.59129 21.10176 -0.281463 0.108291 -0.138944 
Ne 1.22781 7.03111 20.99522 0.368551 -0.188105 0.0882 
Ne 6.0287 2.36439 21.04618 0.611853 0.217818 -0.004974 
Ne 5.15251 4.70491 21.35536 0.25734 -0.127076 -0.538956 
Ne 4.52473 7.09863 20.98013 -0.63978 -0.043204 -0.08507 
Ne 9.27335 2.31925 20.99858 0.216155 0.395903 -0.087859 
Ne 8.12184 4.66856 21.23968 -0.233451 -0.145158 0.038999 
Ne 6.79929 6.80188 20.97867 0.137037 0.005149 0.359418 
Ne 0.17512 1.42776 23.5101 -0.235765 0.175887 -0.421666 
Ne 11.97115 3.54147 23.11397 0.242321 0.349883 0.170892 
Ne 10.4372 6.2311 23.20539 -0.10537 -0.203451 0.021189 
Ne 9.15666 8.86605 22.96199 -0.070202 -0.352696 0.109466 
Ne 7.85297 1.83415 23.04088 -0.026054 -0.097936 -0.080509 
Ne 2.66456 1.32737 23.30181 -0.04692 0.05354 -0.297551 
Ne 1.39968 3.87436 23.0211 -0.027077 -0.23451 0.088955 
Ne 13.22614 5.80152 23.43287 0.126619 0.205365 -0.221473 
Ne 11.71253 8.20454 23.19429 0.317584 0.611155 0.031067 
Ne 10.46362 1.66768 23.00846 0.235496 -0.269613 0.241199 
Ne 5.2193 1.59725 23.42351 0.009023 -0.307642 -0.651122 
Ne 3.98132 3.95611 23.26273 -0.068519 -0.208572 -0.135599 
Ne 2.71057 6.2153 23.04384 -0.298538 -0.34128 -0.036896 
Ne 1.21039 8.26111 23.21237 -0.022366 0.016399 -0.015018 
Ne 6.57864 3.85528 23.12489 -0.020405 -0.130415 -0.115326 
Ne 5.27899 6.24514 23.07887 0.213832 0.02861 0.241406 
Ne 3.8468 8.18327 23.11328 0.107248 0.585186 -0.003952 
Ne 9.51393 3.84006 23.0615 -0.17359 0.161167 0.160492 
Ne 7.78394 5.94258 23.30237 0.299634 0.318459 -0.29241 
Ne 6.71925 8.33698 22.91974 -0.10335 0.234037 -0.085451 
Ne 1.32669 0.64687 25.35945 0.285948 0.085209 0.261427 
Ne 0.14878 3.36899 25.35847 -0.038219 -0.08801 -0.074654 
Ne 11.97313 5.61345 25.37235 -0.131307 -0.224649 0.033612 
Ne 10.67469 7.835 25.16292 -0.484623 -0.146627 0.386487 
Ne 9.3279 0.84655 25.07423 0.005389 -0.181316 0.197888 
Ne 3.96002 0.69352 25.24728 -0.109952 0.018587 -0.014362 
Ne 2.76642 3.10281 25.12158 -0.160219 -0.136983 0.225021 
Ne 1.69708 5.41063 25.48174 -0.226861 -0.077107 -0.210879 
Ne 13.15073 7.91118 25.31805 0.219815 -0.393152 -0.170363 
Ne 11.91949 0.80092 25.32526 -0.003737 0.092736 -0.220715 
Ne 6.85159 0.90755 25.09132 -0.096775 -0.254903 0.016087 
Ne 5.30322 2.94965 25.1673 0.063795 0.291279 0.380131 
Ne 4.19925 5.46732 25.08509 -0.193998 -0.023533 0.28382 
Ne 2.85119 7.59715 25.29009 -0.211408 0.124453 -0.056712 
Ne 7.99754 3.04583 25.16558 0.067591 0.167013 0.018567 
Ne 6.53757 5.16009 25.10878 0.127068 0.135655 0.332501 
Ne 5.38616 7.83946 25.12999 -0.294926 -0.288167 -0.20679 
Ne 10.63165 2.97053 25.24381 0.082003 0.186743 -0.058651 
Ne 9.13956 5.21504 25.21765 0.106991 0.264319 -0.052507 
Ne 7.64098 7.6835 25.06794 0.669791 -0.068095 0.140803 
Ne 0.23812 8.9671 27.43687 0.202496 0.301175 0.460437 
Ne 12.02047 2.25439 27.21446 0.110769 0.215668 0.449578 
Ne 10.50005 4.64496 27.11521 0.428598 -0.058172 0.428537 
Ne 9.38636 7.03666 27.25316 0.049125 -0.090514 0.155454 
Ne 7.94739 9.04432 27.27336 0.131045 0.027814 0.23199 
Ne 3.11201 9.0206 27.40201 -0.306657 0.075253 0.381528 
Ne 1.54288 2.21695 27.38514 -0.038956 -0.018821 0.202911 
Ne 0.05921 4.65623 27.56889 0.016511 -0.009174 0.231066 
Ne 12.08605 7.00182 27.36493 -0.069522 -0.27296 0.4087 
Ne 11.01512 9.19149 27.45835 -0.359385 0.031356 0.315906 
Ne 5.49593 9.13606 26.99419 0.199424 -0.015763 0.620859 
Ne 4.31618 2.09174 27.26096 -0.162096 0.106838 0.389266 
Ne 3.02472 4.34815 27.38174 -0.136081 0.003409 0.26892 
Ne 1.67997 6.85342 27.39738 -0.292252 0.006174 0.391743 
Ne 6.89574 2.22008 27.2109 -0.239042 0.002352 0.390534 
Ne 5.51972 4.35927 27.19152 0.00897 0.0851 0.383806 
Ne 4.07683 6.66605 27.29823 0.344688 0.011165 0.302623 
Ne 9.2579 2.10551 27.23634 0.31247 0.005254 0.34885 
Ne 8.19653 4.52657 27.43762 -0.28342 -0.073513 0.328092 
Ne 6.79694 6.57968 27.22817 -0.099825 0.175895 0.2434 
160
lattice="13.271847 0.0 0.0 0.000233 9.195142 0.0 0.0 0.0 40.0" energy=13.69284272 virial="86.90022606051919 -1.2462500470790991 0.09731377494549782 -1.2462500470790991 89.85281861411758 -1.1493932873572026 0.09731377494549782 -1.1493932873572026 92.56157831208391" properties=species:S:1:pos:R:3:force:R:3
Ne 1.16489 0.81221 12.68948 -0.034888 -0.154798 -0.398205 
Ne 0.13385 3.36052 12.4854 0.116936 -0.693627 -0.43676 
Ne 12.14786 5.21624 12.71007 -0.309221 0.389451 -0.423104 
Ne 10.84649 7.5397 12.82106 -0.191393 -0.088725 -0.554656 
Ne 9.26972 0.98316 12.72486 0.082917 -0.186057 -0.428501 
Ne 4.1122 0.50647 12.64235 -0.119926 -0.09836 -0.292551 
Ne 2.65139 2.64758 12.74006 -0.131731 0.302284 -0.535594 
Ne 1.46221 5.40981 12.64774 -0.048177 -0.261001 -0.327157 
Ne 0.0714 7.56506 12.76508 -0.015922 0.064711 -0.655327 
Ne 11.80493 0.48643 12.77028 0.15202 0.318063 -0.253462 
Ne 6.63639 0.96236 12.7653 0.079323 -0.001008 -0.48322 
Ne 4.90665 2.96247 12.6295 0.616688 0.150923 -0.467017 
Ne 3.91938 5.32155 12.59191 0.06983 -0.049504 -0.317273 
Ne 2.50899 7.45135 12.65914 0.477461 0.541982 -0.395963 
Ne 8.02099 3.1753 12.60351 -0.147551 -0.016595 -0.185008 
Ne 6.73392 5.53483 12.70269 0.204025 -0.290379 -0.39167 
Ne 5.39013 7.46699 12.60952 -0.170135 0.283254 -0.332505 
Ne 10.73077 2.98795 12.73185 0.03093 -0.008982 -0.29307 
Ne 9.43948 5.24139 12.74193 0.025404 0.170624 -0.238952 
Ne 7.96633 7.74139 12.68656 0.243175 0.071239 -0.499248 
Ne 0.37645 8.98304 14.69623 -0.31373 0.436173 0.208361 
Ne 12.16666 2.24051 14.69496 0.069265 -0.061434 0.026151 
Ne 10.97777 4.50066 14.73128 -0.206008 0.033475 0.25156 
Ne 9.58079 7.05123 14.68921 -0.213051 -0.388144 0.134729 
Ne 8.22462 0.05297 14.64886 0.021263 -0.100504 0.275998 
Ne 2.97986 0.11924 14.88957 -0.121414 -0.327614 -0.134796 
Ne 1.53374 2.33185 14.72213 -0.255294 -0.28735 0.269264 
Ne 0.36078 4.44485 14.59714 -0.216926 0.209766 0.382512 
Ne 12.26494 6.74857 14.67829 -0.145077 -0.094839 0.351288 
Ne 10.92818 9.07479 15.07994 0.123039 0.189224 -0.46444 
Ne 5.63917 0.01597 14.70816 -0.371747 -0.035397 0.059975 
Ne 4.13537 2.18753 14.71073 0.186043 0.101377 0.317896 
Ne 2.82246 4.43981 14.8106 0.125641 0.130649 -0.075328 
Ne 1.51577 6.98614 14.71955 0.240056 -0.377147 0.375978 
Ne 6.81953 2.16577 14.93805 -0.024317 0.283115 -0.038081 
Ne 5.42179 4.64656 14.47878 0.09333 -0.268634 0.238507 
Ne 4.29602 6.78718 14.74533 -0.424917 0.32738 -0.382308 
Ne 9.41456 2.13516 14.9385 0.026406 0.287342 -0.234682 
Ne 8.06741 4.55402 14.78766 0.077063 -0.067835 -0.148686 
Ne 6.85311 7.16036 14.70345 -0.040027 -0.355949 -0.059474 
Ne 0.07087 1.41833 16.8606 -0.074578 0.235978 -0.039051 
Ne 11.78334 3.80265 17.13804 0.245007 -0.212184 -0.125534 
Ne 11.03751 6.03472 16.97421 -0.219725 0.111512 -0.362773 
Ne 9.64325 8.20468 16.81862 -0.244356 0.098801 0.129804 
Ne 8.13259 1.45732 17.07678 -0.104605 0.02501 -0.047565 
Ne 2.69567 1.6156 16.85597 0.163191 0.058138 -0.105556 
Ne 1.31802 3.78432 16.86115 0.012364 0.012532 0.02433 
Ne 0.24771 6.08205 16.86672 -0.041674 -0.079576 -0.240544 
Ne 12.19951 8.1329 16.86743 0.057615 0.291577 0.026628 
Ne 10.7332 1.55579 16.80089 0.065969 -0.04263 0.327317 
Ne 5.51145 1.31812 16.9889 0.01077 0.262812 -0.39766 
Ne 4.32115 3.78906 16.82148 -0.338664 -0.270311 -0.249215 
Ne 2.85439 6.07085 16.74104 -0.059308 0.14502 -0.212547 
Ne 1.41049 8.64169 16.90104 0.201786 -0.34458 0.099037 
Ne 6.67075 3.90449 16.81663 0.302835 0.016139 -0.068016 
Ne 5.33803 6.15615 16.62467 0.433745 -0.165659 0.312417 
Ne 4.19174 8.35684 16.91463 -0.18428 0.070356 -0.377007 
Ne 9.31203 3.73666 16.88952 -0.070278 0.071758 -0.034487 
Ne 7.94931 6.15897 16.5659 0.206835 -0.031867 0.264149 
Ne 6.82487 8.47081 16.7282 -0.139481 0.041019 -0.143399 
Ne 1.67055 0.93048 19.02312 -0.567333 -0.581784 -0.171802 
Ne 0.05281 3.30746 19.02757 0.09261 -0.236227 -0.175405 
Ne 12.04851 5.39377 19.11824 -0.108369 0.132545 -0.217347 
Ne 10.64827 7.82706 19.01235 0.04467 -0.268951 0.070472 
Ne 9.34418 0.63623 18.99406 -0.041706 0.29987 -0.032987 
Ne 4.13253 0.7503 18.76049 -0.123363 0.068302 0.384358 
Ne 2.58512 2.93152 18.93667 0.23083 0.717807 -0.289655 
Ne 1.63155 5.69635 18.69998 -0.138372 -0.186648 0.439175 
Ne 13.26101 7.62722 19.00194 0.243447 0.118294 0.099009 
Ne 11.98618 0.7469 18.8332 0.102497 0.132539 0.113619 
Ne 6.53469 0.4421 19.07941 0.20291 0.337204 0.026691 
Ne 5.67712 2.98858 18.78698 -0.288745 -0.00479 0.375039 
Ne 4.13936 5.22061 18.64577 -0.008984 -0.104474 0.411247 
Ne 2.79236 7.86575 18.96686 -0.23882 -0.101426 -0.093757 
Ne 8.02108 3.1285 19.1695 -0.051316 -0.0932 -0.161362 
Ne 6.94608 5.54346 18.92041 -0.147526 -0.121199 -0.060027 
Ne 5.15688 7.38141 18.8134 0.378545 0.070954 0.27851 
Ne 10.34023 3.06776 19.3122 0.384581 0.016727 -0.272936 
Ne 9.4719 5.46883 18.63424 -0.165684 0.00684 0.210199 
Ne 7.96013 7.84955 18.55721 0.234312 -0.409107 0.515655 
Ne 13.0217 9.18885 21.13892 0.217639 0.152221 -0.241201 
Ne 12.05371 2.4244 20.96675 -0.109959 -0.212513 -0.104228 
Ne 10.46608 5.0227 21.05421 0.185021 -0.40446 0.195709 
Ne 8.98288 6.76944 20.80977 0.064346 0.594822 0.037275 
Ne 8.11756 0.30443 21.15754 -0.26509 -0.284936 -0.086688 
Ne 2.41076 9.04411 21.08372 0.224633 0.035987 0.08341 
Ne 1.21967 2.09406 21.01442 0.022993 0.19721 0.117977 
Ne 13.16559 4.68634 21.00552 0.096781 0.033907 0.244082 
Ne 11.90127 7.08398 21.02543 -0.211455 -0.100283 0.198396 
Ne 10.58433 0.27647 21.05801 0.051723 -0.139751 0.135351 
Ne 5.32756 8.89427 20.94256 -0.277886 0.159523 0.246768 
Ne 3.83943 2.30585 20.77563 0.265075 -0.156113 0.313682 
Ne 2.44867 4.62441 20.74415 -0.061276 -0.160891 0.19617 
Ne 1.06601 6.90852 21.49562 -0.136871 0.086838 -0.646928 
Ne 6.72461 2.65106 21.26471 -0.228526 -0.473078 -0.268076 
Ne 5.07799 4.65403 21.01321 0.16388 -0.110383 -0.135156 
Ne 3.66154 6.68715 20.93281 -0.024032 0.247048 -0.099628 
Ne 9.35362 2.45478 21.41751 -0.099751 0.212554 -0.182953 
Ne 7.90047 4.6697 21.11638 0.050394 -0.013838 0.076178 
Ne 6.58275 6.81381 21.09566 -0.106424 0.126059 -0.212084 
Ne 0.13171 1.33798 23.28898 -0.638274 0.774473 -0.1042 
Ne 11.77567 3.43235 23.02596 -0.152555 0.551035 -0.321839 
Ne 10.55365 6.48547 23.24879 0.007409 -0.60113 -0.223789 
Ne 9.33468 8.35723 23.22554 -0.433992 0.390373 -0.261958 
Ne 7.82739 1.48827 23.24739 -0.126285 -0.072387 -0.064446 
Ne 2.46535 1.58256 23.14544 0.413489 -0.035559 0.051754 
Ne 1.08689 3.70296 22.93315 0.111997 0.16954 0.043084 
Ne 12.89373 5.86349 23.2401 0.149973 0.021715 0.000165 
Ne 11.85883 8.66512 23.25629 -0.145744 -0.111305 -0.084577 
Ne 10.34522 1.61402 23.33713 0.148642 -0.539251 -0.25832 
Ne 5.13519 1.57632 23.03195 -0.0059 -0.098552 0.023594 
Ne 3.7705 3.78068 22.98863 -0.055881 0.13561 0.063525 
Ne 2.29101 6.08949 23.15481 0.281783 -0.216183 0.354114 
Ne 1.12935 8.6489 23.17737 0.390851 -0.817347 0.211305 
Ne 6.35736 3.82787 23.26012 -0.095025 0.312048 0.016498 
Ne 4.93847 6.39745 22.88945 0.102504 -0.334398 0.381055 
Ne 3.82777 8.50683 23.19753 -0.120296 0.140384 -0.137 
Ne 9.12312 4.03713 23.38346 -0.037778 0.168594 -0.238532 
Ne 7.5853 6.11729 23.20185 0.188566 -0.001084 -0.03536 
Ne 6.4724 8.39435 23.21916 0.098141 0.17971 -0.205444 
Ne 1.17368 0.80165 25.45323 0.130377 0.023083 -0.027767 
Ne 12.91016 3.10064 24.92695 0.40507 0.063068 0.524672 
Ne 11.72424 5.39405 25.31635 0.039245 -0.029932 -0.101889 
Ne 10.46945 7.70869 25.31328 -0.003515 0.245687 0.092821 
Ne 9.15399 0.82591 25.25282 -0.133492 -0.173161 0.235858 
Ne 3.90986 0.76127 25.38498 -0.142469 0.142454 -0.266863 
Ne 2.30963 3.23108 25.13007 0.190607 -0.188778 -0.155959 
Ne 1.12905 5.32891 25.45897 -0.258895 0.037817 -0.594301 
Ne 12.8992 7.62256 25.21358 0.404399 0.071495 -0.064893 
Ne 11.85521 0.89073 25.35871 -0.015996 -0.161447 -0.188563 
Ne 6.44344 0.68157 25.30014 0.000162 0.169995 -0.189957 
Ne 5.00721 3.29539 25.32411 -0.048701 -0.138031 -0.056056 
Ne 3.69037 5.55206 25.24416 0.285201 -0.062999 -0.304595 
Ne 2.46623 7.70858 25.1808 -0.141063 0.053259 0.075491 
Ne 7.62411 2.97537 25.08507 0.176608 0.1079 0.328056 
Ne 6.77841 5.49012 25.4225 -0.452691 -0.199453 -0.421616 
Ne 5.1353 7.74677 25.2152 0.024228 -0.219495 0.010543 
Ne 10.4665 3.0514 25.06688 -0.085009 0.315987 0.61081 
Ne 9.12829 5.63037 25.36724 0.20028 -0.451689 -0.394344 
Ne 7.84399 7.70416 25.17082 0.065274 0.209594 0.050308 
Ne 0.11587 9.14599 27.48282 0.049416 -0.146824 0.319331 
Ne 12.33211 2.0678 27.38299 -0.302567 -0.006808 0.35739 
Ne 10.66678 4.57799 27.23843 -0.214158 -0.103402 0.448293 
Ne 9.36976 6.79527 27.28291 -0.167938 0.260465 0.727788 
Ne 7.55685 9.08082 27.34451 0.669427 0.239647 0.338716 
Ne 2.64844 9.09894 27.41453 -0.129323 0.041833 0.298594 
Ne 1.48388 2.57087 27.30704 -4.1e-05 -0.41072 0.358388 
Ne 13.0859 4.21122 27.24625 0.03685 0.601493 0.287646 
Ne 11.89265 7.15507 27.36592 -0.057263 -0.279241 0.413189 
Ne 10.65939 0.12087 27.30659 -0.100718 -0.326201 0.399815 
Ne 5.22451 9.17193 27.39337 -0.199345 0.048271 0.382225 
Ne 3.87593 2.16406 27.38487 0.177616 0.22342 0.311146 
Ne 2.6103 4.67069 27.15875 0.23497 0.003237 0.657955 
Ne 1.10252 6.73394 27.27049 0.083205 0.219469 0.487328 
Ne 6.63983 2.2645 27.24769 -0.085423 0.034098 0.339616 
Ne 5.30377 4.83164 27.24362 -0.152434 -0.170408 0.407266 
Ne 3.93306 7.00305 27.30484 -0.066191 -0.12622 0.329081 
Ne 9.65608 2.20034 27.28239 -0.308834 0.314381 0.310899 
Ne 7.85821 4.43973 27.27044 0.240673 -0.043255 0.41848 
Ne 6.60739 6.97649 27.22731 -0.067101 -0.159073 0.493206 
160
lattice="13.271847 0.0 0.0 0.000233 9.195142 0.0 0.0 0.0 40.0" energy=33.18688048 virial="149.20660441047787 -2.5456357308222395 4.058721733121335 -2.5456357308222395 147.00302934068043 4.036845937751621 4.058721733121335 4.036845937751621 141.2952443423978" properties=species:S:1:pos:R:3:force:R:3
Ne 13.04147 8.75376 12.32096 0.089337 0.055611 -0.526805 
Ne 0.7404 4.35271 12.46857 1.84582 0.286374 -0.461756 
Ne 1.31474 7.04248 13.61104 0.42538 0.020656 -0.50404 
Ne 12.64712 6.06946 12.32131 -0.447627 0.917898 -0.579993 
Ne 8.96797 1.14784 13.23841 0.235373 -0.14717 -0.162865 
Ne 2.8584 2.37451 12.61169 -0.276931 0.600876 -0.762118 
Ne 2.12207 4.61548 15.08271 -0.281418 0.681915 0.087828 
Ne 3.13053 5.12612 12.70464 -0.12948 -0.106319 -0.600071 
Ne 1.99015 0.31941 13.10275 -0.67808 -0.977307 -0.602043 
Ne 11.35645 1.63933 12.54201 -0.057688 -0.589593 -0.490543 
Ne 6.22005 0.10329 12.27674 0.597555 -0.053391 -0.832281 
Ne 5.93151 5.62063 12.96268 -0.842221 -0.368294 -0.121873 
Ne 4.37038 7.34043 12.58529 -0.080605 0.029602 -0.737723 
Ne 4.14045 0.39402 12.49707 -0.408677 0.35253 -0.184146 
Ne 9.49075 3.81241 12.48372 0.579179 -0.620406 -0.233324 
Ne 11.0451 8.15684 13.45342 0.159097 0.053291 -1.073754 
Ne 7.98102 5.4179 12.47609 -0.204793 0.144941 -0.437926 
Ne 12.03724 3.83817 12.5833 -1.366392 -0.158238 -0.094299 
Ne 10.02123 6.10448 12.79175 0.796126 0.117733 -0.367009 
Ne 8.09322 8.12826 12.88439 -0.171821 0.118135 -0.954795 
Ne 0.83555 0.40396 16.26659 0.289604 0.71246 1.090919 
Ne 13.07543 5.29627 14.48133 0.609444 -0.818037 -0.488052 
Ne 0.67407 6.9544 15.7913 0.200916 -0.112735 0.292104 
Ne 11.39905 6.38067 14.99296 -1.040678 0.147942 -0.389871 