 -8.6922336e-07   1.1338839e-07
  5.8725422e-05   1.4670937e-07
 -1.5118930e-02   1.3395295e-07
  1.5963904e-04   2.5386919e-07
  2.0609918e-05   1.6900914e-07
 -3.0907747e-04   1.7508176e-08
 -1.4791016e-01   9.8656685e-08
 -7.9798565e-06   6.9278946e-07
 -1.4459861e-05   1.5978582e-06
  2.9885028e-05   1.4135452e-07
  3.5482008e-06   1.1277214e-06
 -4.4154749e-06   6.6737520e-08
  8.4048925e-06   2.3362867e-07
  1.6886748e-05   9.5149625e-07
 -1.7772323e-05   1.5407007e-06
 -8.3035229e-05   9.2040909e-07
 -5.0979277e-05   9.9684860e-07
 -2.9209194e-05   6.1790342e-07
 -3.5051067e-05   4.6598390e-07
 -5.7663590e-05   2.6037267e-07
 -1.1753100e-05   1.9030733e-06
  8.0092272e-05   4.7726508e-07
  7.0706615e-06   1.1719613e-06
 -2.8643737e-05   2.3524233e-07
  1.7761292e-04   1.6887776e-07
 -4.8536735e-04   1.2661352e-08
 -2.0744999e-04   9.5978663e-08
  1.3261170e-07   3.8357932e-08
 -7.9408328e-06   2.1139991e-07
 -4.0890271e-05   2.9100835e-07
 -7.0176822e-05   3.2929265e-07
 -7.6751903e-06   1.7261388e-07
  2.5484071e-05   9.2390115e-07
  2.5216874e-04   3.6162226e-07
 -2.6023265e-05   1.9502302e-07
 -4.4859400e-05   1.6168390e-06
  2.2885188e-05   7.4699079e-07
  4.6733380e-06   6.4081729e-07
 -2.6524560e-06   9.6149233e-07
 -8.2073857e-06   4.6668640e-07
 -3.0298890e-05   7.7380531e-07
 -6.5324821e-07   3.7831492e-06
  1.1947231e+00   2.8282312e-07
 -9.2818862e-01   8.5857344e-08
  9.9061024e-01   1.6596964e-07
 -1.0004088e-03   4.1809221e-07
 -2.7346747e+00   2.8621403e-07
 -5.5038482e-01   3.9973251e-08
 -2.1248372e+00   2.7225358e-08
  9.1794736e-06   4.5867573e-06
  1.8314835e-05   9.6310168e-07
 -3.2066160e-05   1.4202216e-07
  7.7509776e-07   3.2118055e-06
 -1.8550780e-05   2.0177490e-06
 -3.0705307e-02   9.2175675e-08
 -6.5967048e-05   3.3419308e-06
  2.0166823e-07   7.6454847e-07
 -7.7277373e-06   2.9815226e-07
  9.7724669e-06   3.6082297e-06
 -5.9274894e-01   3.0235665e-07
 -1.6296715e-05   2.7755129e-07
 -1.0597033e-03   9.3846211e-08
 -3.2055043e-05   2.2566775e-07
 -4.5365523e-06   2.2487907e-06
  6.5305743e-05   3.9916867e-07
 -3.7986556e-05   3.2552764e-06
 -5.7645880e-02   1.9482064e-07
  4.8299968e-05   1.4722179e-06
  2.3362874e-03   1.9247263e-07
 -6.7377905e-06   4.6518261e-07
  2.9048328e-05   8.4773109e-07
 -2.8516888e-05   1.1890907e-06
 -1.0510968e-05   4.4884550e-06
  1.2827910e-02   2.0504739e-07
 -1.3589511e-04   1.7280021e-07
 -2.8244303e-06   9.0441017e-07
  2.3058659e-05   8.1893859e-07
  1.2871555e-05   1.4105344e-06
 -7.3343814e-05   6.2845693e-09
  4.7008165e-05   4.2301926e-06
  4.5624010e-06   1.5003459e-06
 -3.1590007e-05   3.0473952e-06
  3.7284699e-05   2.5904594e-06
 -2.0558606e-05   7.1416656e-07
 -3.1355102e-02   7.3537700e-09
 -3.1843409e-01   5.8288383e-09
  1.1328845e-01   5.7468643e-09
 -8.5837489e-01   3.4827810e-08
 -1.6171535e-02   4.6010955e-09
 -2.9143393e-02   1.8786628e-09
 -1.3470775e-01   7.8904017e-10
 -1.8801770e+00   7.9431061e-08
  2.5543168e-01   6.8361672e-08
 -3.9088880e-03   1.6739135e-07
 -1.1960633e-01   8.8577401e-08
  1.9391574e-01   8.2915584e-08
  2.3909345e-01   4.6621000e-09
 -2.0210357e-01   2.1237655e-08
 -7.7521610e-01   1.6340849e-08
  1.4605623e-01   8.0226386e-08
  6.2603515e-01   6.5044361e-08
 -1.0980320e-01   1.0823526e-08
 -9.3774512e-02   5.0224106e-08
 -1.2895771e-02   2.2644343e-08
 -7.7613564e-03   2.1461666e-07
 -1.5985361e-01   3.3490806e-09
 -1.3288933e-04   1.7143954e-08
  2.2633964e-02   2.5371593e-08
 -1.6624945e-01   2.5247992e-08
  8.0738002e-03   3.9408484e-08
  5.3067240e-03   1.1075358e-08
 -1.3245696e-02   8.5335145e-08
 -2.2027655e-01   4.9411526e-08
  2.1708615e-03   5.2054535e-08
  1.8027236e-01   6.6025244e-08
 -2.4776084e-02   1.3885419e-08
  8.0624856e-03   2.3825931e-08
  5.3986688e-03   1.4511452e-08
 -9.9364080e-02   8.8020307e-08
  3.7937914e-03   1.2804603e-06
 -2.2460097e-05   3.2010774e-07
  4.7442191e-03   3.6125966e-06
 -8.2918284e-03   1.5320163e-07
  3.7624810e-05   4.0525978e-07
  1.9701375e-03   5.2049309e-08
 -4.3562271e-05   5.3911663e-08
 -1.1894917e+00   2.1383721e-08
  8.5839027e-01   1.0653409e-07
 -1.7202405e+00   2.2106434e-08
 -6.3517225e-01   1.7907442e-07
 -3.8117450e-02   1.0212106e-07
  1.4172779e+00   1.3021113e-08
 -5.1847439e-02   5.3110565e-09
 -3.5513859e-04   2.4023748e-07
 -3.5398575e-06   7.9613223e-08
 -7.2992101e-05   5.9078053e-07
  3.3210635e-02   4.6803467e-07
  1.9781883e-05   2.5254940e-07
  6.4465189e-01   3.1369584e-08
 -8.2966057e-05   2.0377486e-07
 -8.2447059e-02   2.2126332e-07
  7.2261311e-02   1.2488374e-06
 -5.3540858e-05   1.1645941e-06
  2.1098437e+00   1.5010553e-08
 -8.5571483e-02   2.2969246e-07
  3.9787415e-01   4.2707960e-08
 -2.9115869e-05   6.5165847e-07
 -1.2388768e-01   6.0934400e-07
 -4.1499332e-02   5.1317169e-08
  9.7291573e-05   4.4454575e-07
  2.7285738e+00   2.0246118e-07
 -2.1354765e-01   8.0314442e-07
  1.2071367e-03   1.6084955e-07
 -1.3762145e-01   1.1256581e-06
  6.0933741e-04   1.0864915e-07
  1.3276700e-04   7.0427012e-07
  2.7694543e-06   7.6593022e-07
  7.0621246e-01   1.7397640e-07
 -6.3072053e-05   2.3366341e-07
  6.6903344e-06   1.7595887e-07
 -7.0070587e-02   1.0283085e-07
  7.4676232e-06   2.9794505e-06
 -1.1825875e-05   3.9242500e-06
  1.1443219e-05   7.2994853e-06
 -4.4756031e-04   7.5347822e-07
  7.3346646e-06   1.6424908e-06
 -1.6339165e-05   7.5405114e-07
 -1.9854293e-05   1.7996242e-06
  1.8510777e-01   2.5533407e-07
  1.3097082e-01   6.9528858e-07
  2.7664071e-05   6.5852424e-07
  1.7054015e-03   6.7782497e-07
  1.2602100e-04   4.9377866e-07
  3.1567028e-01   2.7886651e-07
 -3.0472133e+00   2.2799210e-07
 -1.0026939e-05   5.7078580e-07
 -2.7809729e-04   7.4076797e-07
 -8.5843603e-06   3.7449679e-06
  5.1085048e-05   2.3336609e-07
  6.6795001e-05   3.2795708e-07
 -3.0046574e-06   3.0404374e-07
  8.9774157e-06   1.9967338e-06
 -4.6442417e-04   6.5570305e-07
  3.8828566e-05   2.7584443e-07
  1.0334639e-05   1.6385569e-06
  8.7870233e-04   1.4851424e-06
  7.2833423e-06   7.3123203e-07
  7.4813133e-03   7.7940979e-07
  3.9709299e-05   2.9102480e-07
 -7.0087466e-05   3.4762350e-06
  8.0778682e-07   3.2149903e-06
 -1.6012651e-05   8.2775896e-06
 -8.9766793e-03   9.6732776e-07
 -5.4484619e-05   1.2831738e-06
 -2.0307524e-04   4.0557115e-08
 -5.0486224e-06   1.6131645e-06
  5.8649272e-05   1.0444395e-06
  1.4653211e-04   9.5084278e-07
  1.4249290e-05   2.0043285e-06
  1.0927719e-04   2.0389132e-06
 -1.8824104e-04   1.8025683e-07
 -3.2057047e-05   6.0350050e-07
  4.0578011e-06   4.6254509e-06
  7.8123685e-06   2.5807330e-07
  1.0012023e-04   5.0198122e-07
  1.4982452e-05   2.5175041e-06
  5.6109461e-06   1.1386390e-07
 -5.3332591e-05   4.4611252e-06
  3.1282063e-05   2.7686482e-07
 -2.3941357e-05   2.7606598e-06
 -1.8006246e-01   7.4443811e-08
  1.6235133e-05   2.5325986e-07
 -2.1272977e-03   8.3858993e-08
  3.8140136e-04   1.1933917e-06
  1.5012315e-04   5.9805593e-08
 -6.4193868e-05   5.3307194e-09
  1.1074638e-01   3.6220449e-08
  3.0874362e-05   1.9103862e-07
 -6.8533232e-06   2.3310809e-06
 -1.1173646e-04   1.3226950e-06
 -3.8549049e-05   1.3266570e-06
 -1.1426651e-05   2.9449970e-06
  5.6391409e-06   4.7295430e-07
  1.3425490e-05   2.2721367e-06
  4.6378000e-06   1.5039302e-06
 -4.0384667e-04   4.1682426e-07
 -1.2729764e-04   2.4254422e-07
 -1.0884272e-05   1.7712073e-07
  5.2714486e-06   1.9481276e-06
 -2.1311583e-04   4.4188624e-07
 -1.6702031e-06   1.8958598e-06
  4.8482649e-05   1.1143377e-06
 -1.2346089e-03   6.9314638e-07
 -4.0110750e-05   2.3374307e-06
 -1.0180991e-05   7.9623817e-08
 -9.0334579e-06   7.9450807e-08
 -4.0824614e-03   1.7963936e-07
  5.4144788e-05   7.1490393e-07
  1.5645001e-05   3.1787582e-07
  1.0264116e-04   2.2132554e-06
 -4.1497874e-06   3.9754781e-07
 -3.2248627e-04   1.6915671e-07
 -1.8709925e-05   1.1883056e-06
  2.8279785e-06   2.7962361e-07
 -2.7265919e-06   1.0571587e-06
 -1.4456773e-04   3.0560568e-07
  3.2596165e-06   1.5737317e-06
  2.7039348e-05   3.4503796e-06
 -2.3610053e-05   2.4856211e-06
  2.0523867e-05   1.9115380e-06
 -2.2014395e-07   2.2065062e-06
  1.5259175e-06   1.4164270e-07
 -2.2936430e-02   1.4734795e-07
 -8.4387320e-05   5.7713504e-07
  4.6163509e-03   4.3103634e-07
 -8.6809796e-01   4.5763895e-07
 -4.5359641e-01   1.7623391e-07
 -1.9820845e+00   4.9785005e-08
 -9.0159750e-01   1.0232792e-07
 -1.1069347e-06   1.7130538e-06
  7.1621312e-06   2.6916799e-08
  2.5280729e-05   8.1651478e-07
 -3.9452047e-04   1.0460581e-06
 -6.2562458e-06   4.3909117e-06
  2.4282221e-01   1.2745100e-07
 -1.6021364e-05   1.2166520e-06
 -5.0583940e-06   4.2206734e-06
 -1.3049763e-05   2.3091859e-06
  8.9674413e-06   2.1650176e-06
 -1.2942663e-06   5.2424224e-07
  1.4449083e-06   2.2477323e-06
 -3.9429626e-05   2.8722692e-07
 -1.6040842e-05   1.4646172e-06
 -9.9551682e-05   6.6294376e-08
 -8.6260013e-07   2.1543934e-07
 -1.1445104e-06   1.4309371e-06
  1.5970296e+00   7.9887180e-08
  1.7873950e-04   2.3102456e-07
 -1.7083653e-04   2.1974327e-07
  3.3250697e-05   2.9621486e-07
 -2.3438470e-05   1.2552665e-06
  3.9127797e-05   7.7347755e-07
 -4.6682791e-05   1.2481229e-06
  8.1646633e-01   6.0697607e-07
  2.3694216e-05   9.9900251e-07
  1.7289560e-05   4.0216565e-07
 -3.3145203e-05   3.2892669e-07
  3.8767274e-05   2.5227439e-07
  5.8279497e-06   3.2032051e-06
  1.1875645e-05   2.6165894e-06
 -5.0493811e-05   1.1124002e-06
 -8.7882232e-05   1.4934184e-08
 -3.0578260e-05   4.7423526e-07
 -8.5710490e-06   1.8354333e-08
  1.2120451e-01   3.7193974e-08
  6.5167207e-01   5.4529536e-08
 -3.8535923e-03   1.4615740e-08
  7.4919617e-01   2.7549703e-07
  2.6693255e-02   8.3212306e-08
  2.5815243e-01   3.3502804e-08
  9.2033200e-02   1.9724846e-09
  5.6493031e-05   2.7941425e-07
 -1.0274069e-06   7.3867943e-07
  3.6331636e-05   1.6672039e-06
 -1.0149167e-02   3.8573751e-07
 -3.7198090e-05   2.2546842e-06
 -1.0146287e-02   8.0490935e-08
 -3.0609117e-06   9.5510200e-07
  8.0258766e-04   1.5489492e-06
  1.4485981e-06   2.8984238e-07
 -1.5039373e-06   1.1856583e-06
 -6.0159928e-04   1.9709911e-07
 -1.1214317e-05   8.6811177e-08
 -2.2126357e-03   6.7199359e-08
 -5.9878079e-05   2.0078764e-06
  1.0625781e-03   7.2804391e-07
  3.5179564e-06   2.4966567e-07
 -3.8656792e-05   4.2936821e-07
  5.2637991e-02   1.6059519e-07
  5.4199252e-05   8.6440986e-07
 -6.5119904e-03   8.1735152e-08
  7.8828170e-06   9.1147207e-08
 -3.8486510e-04   6.2682936e-08
  2.6263297e-05   1.6885231e-07
 -1.8613990e-05   3.3762552e-07
 -1.3031668e-02   1.8521217e-08
  6.6206390e-05   2.4449488e-07
  3.4204756e-03   2.8786909e-07
  4.5517816e-05   4.5333655e-07
  4.7991557e-06   2.1926903e-06
 -2.2124548e-05   2.5446718e-06
 -1.0038514e-05   3.4617292e-07
  4.9848467e-07   1.1109070e-06
  2.3735556e-05   2.3374177e-07
  1.4845419e-05   1.0487460e-07
  8.1746684e-06   1.4775228e-06
 -6.5053034e-01   9.0700105e-09
 -5.4301006e-01   8.3432610e-08
  1.8755790e+00   2.7739516e-08
 -1.2566607e+00   2.0341682e-07
  1.8232252e-01   5.2610098e-08
  1.7345362e+00   2.3239604e-08
 -5.9123403e-01   3.0321363e-08
  6.1916708e-06   2.0775124e-06
  6.7421764e-01   1.1370053e-06
  6.9150835e-02   2.5017610e-07
  3.2254040e+00   4.1751994e-07
  8.7348449e-01   2.0453317e-06
  1.1055002e-02   2.4077295e-08
  8.3215140e-02   1.5533664e-06
 -7.7562797e-01   4.0873624e-07
  9.9512517e-01   4.0843508e-07
  8.4158474e-01   4.4516347e-07
  3.4270015e+00   9.7955237e-08
  1.9271311e-01   8.3240968e-07
 -1.5718004e-02   1.6498392e-07
  7.3109722e-01   3.1792274e-07
 -3.6937609e-01   2.5424103e-07
  1.2243952e+00   1.8628432e-07
  1.7107726e+00   2.6256575e-07
  2.6761818e-01   5.0930624e-09
  6.3063842e-01   2.5177857e-07
 -9.8240227e-05   1.5501895e-07
  1.6140227e+00   7.1361804e-08
 -7.9698765e-01   1.2645836e-07
  1.0037054e+00   1.3282312e-07
  1.2131134e+00   1.0678669e-06
  3.0996177e-01   1.4067909e-07
  1.2817554e+00   2.8473386e-07
  9.0859330e-04   1.5454347e-07
  1.5193621e+00   9.1962886e-07
 -3.3015898e-05   4.1478124e-06
 -1.4162219e-04   8.3950846e-07
  2.9753652e-04   3.2825169e-06
  3.8249475e-01   6.4669638e-07
  5.2620078e-07   1.9746069e-06
  3.9012043e-04   2.1469798e-06
  3.9392580e-06   5.9652989e-06
  7.1014954e-05   2.2532310e-08
  9.8020268e-05   1.1211350e-07
 -3.8191126e-04   5.2648765e-09
  1.5334324e-04   1.6414772e-07
 -1.8347662e-05   2.6955232e-07
 -9.9858255e-05   1.9896166e-08
  9.3402945e-05   7.7802298e-09
 -2.0796175e-05   1.2434850e-06
 -1.9969036e-06   5.1917726e-07
  1.8001712e-05   7.8501904e-07
 -9.0144560e-05   1.1248466e-07
  2.5541620e-05   4.9724135e-06
 -2.1247388e-06   3.5660085e-07
  7.4021068e-06   1.5199018e-06
 -1.5440575e-05   6.9291577e-06
  3.0772649e-06   5.7558761e-08
 -3.2974360e-05   8.1500921e-06
 -9.8523469e-07   2.0413552e-06
 -2.1903046e-05   4.4112935e-06
 -4.3479317e-06   6.5633611e-07
 -2.9568533e-05   4.5105375e-07
 -2.7236218e-05   4.5119459e-06
  2.1273598e-07   8.7696378e-07
 -2.6979582e-05   1.1762907e-06
  1.0210294e-05   3.2768111e-07
  3.7978378e-05   4.2169008e-06
 -2.7832708e-05   4.1805379e-08
  1.0359016e-05   2.6938026e-06
 -1.8939900e-05   1.4807454e-06
  3.7696507e-05   1.5484827e-06
 -6.3353928e-06   1.4747380e-06
 -1.6916687e-05   6.3376675e-08
  4.7862268e-05   4.3389474e-07
 -7.5632735e-05   5.4758445e-08
 -2.5682204e-05   9.2799425e-08
 -4.9872674e-06   5.0369812e-07
  9.0415881e-05   4.7204631e-07
 -7.5180309e-05   1.9463488e-07
 -6.9399292e-05   3.5605058e-07
 -2.0893933e-05   5.8541269e-07
 -2.6401440e-06   3.1348611e-07
 -2.7269651e-05   1.6551840e-07
 -1.6204844e-01   3.2351544e-08
  1.1300977e+00   1.7151667e-07
 -3.4899366e-01   1.0500389e-07
  1.4069954e+00   3.8347443e-07
  1.4676157e-01   1.3308171e-07
 -1.4557461e-01   1.5906947e-08
  5.8524567e-01   3.7783494e-08
 -2.7039932e-05   2.7850845e-06
 -2.4191088e-06   8.0530856e-07
 -1.4701332e-05   1.4298554e-06
 -3.7524754e-03   2.5301705e-07
  5.1969969e-06   6.5601643e-07
 -2.8198656e-01   8.5013463e-09
 -4.4891996e-05   6.6464065e-07
  4.7590457e-02   5.4323527e-07
 -1.0628368e-04   3.5902934e-07
 -1.7820112e-01   2.3420655e-06
 -5.9940179e-05   1.3830980e-07
 -1.0003184e-04   2.6980608e-08
 -4.5099245e-05   6.8176831e-08
 -8.7931958e-06   1.6441534e-07
  8.8082589e-03   2.6091033e-07
 -3.0591746e-05   1.7645932e-07
 -9.1378388e-05   2.2785126e-07
  6.5669411e-01   9.3168495e-08
  4.2975011e-05   1.5632436e-07
 -5.1336521e-03   3.5610991e-08
  2.3388273e-05   5.9184811e-07
 -4.4114800e-05   1.6641688e-07
 -2.0092679e-05   2.1879048e-07
 -1.6119167e-04   1.7672861e-06
 -2.8684783e-01   2.7970287e-08
 -8.1147709e-06   1.1584085e-06
  1.2675629e-02   1.5433177e-07
  1.5442484e-06   4.4443976e-07
 -1.5895781e-05   1.0108277e-05
 -3.7025147e-05   8.4541280e-06
  5.5789910e-06   4.6306764e-06
 -1.3413297e-05   6.5833228e-07
  4.6852056e-05   1.6582496e-06
 -7.5415714e-06   8.7791057e-07
  2.6942091e-05   8.0996294e-09
  4.5812745e-02   1.7674709e-07
  3.2740459e-01   4.9944094e-07
  1.3180939e-03   1.6381418e-07
  1.5140165e-04   8.6832102e-07
  1.3875194e-04   3.3920344e-07
  7.1788177e-02   1.3212797e-07
 -1.6176684e+00   3.6533304e-08
  1.9791728e-06   2.5468337e-06
  2.9560538e-06   2.0969912e-07
  1.5585516e-05   1.5885090e-07
  1.6350907e-04   2.7014983e-06
  4.0170611e-04   1.8442370e-07
 -1.5737927e-05   5.3146238e-07
 -1.1923774e-07   1.3580859e-06
  9.5545756e-06   2.2556192e-06
  5.8755261e-04   7.1987483e-07
  5.5975202e-06   1.4482863e-06
  4.9108370e-05   6.6895217e-07
  1.5026802e-04   1.4194389e-07
  5.3573385e-05   3.2030772e-07
 -2.0525180e-05   1.0989492e-06
 -3.0050393e-05   9.1207318e-07
 -4.0541261e-05   1.5222773e-07
 -1.9738402e-05   2.4766732e-06
 -8.0667531e-05   4.8260353e-07
  3.9796680e-05   1.6763792e-07
  3.1158936e-05   3.3456519e-07
 -2.0696261e-05   8.7683600e-07
  9.3811950e-06   3.0541125e-06
  8.7948880e-05   2.6073417e-06
 -1.7464907e-04   6.5414878e-07
  2.3338506e-02   3.5767749e-07
 -3.3070963e-05   5.5073451e-07
 -2.3050186e-05   6.0573802e-07
 -6.8262816e-06   3.0720421e-06
  4.1540323e-05   2.6868563e-06
  1.7766848e-05   3.0220383e-07
  2.0425898e-06   4.6435925e-06
  3.1879908e-04   1.9493227e-06
  6.9764748e-05   4.5844067e-06
 -1.4670886e-05   2.8161189e-06
  4.3187978e-05   1.1552008e-06
  3.7680322e-01   2.4409795e-08
  1.6999099e+00   4.4076618e-08
  1.6971257e-01   8.5255330e-08
  1.5949540e+00   1.1261319e-07
  1.1780175e+00   8.2344318e-09
 -8.7234104e-01   1.8445147e-10
  4.3572739e-01   5.4592433e-09
  4.4197261e-02   9.1849063e-07
 -5.3333414e-01   4.4589132e-07
 -1.1068758e-04   1.1008582e-06
 -6.6956177e-02   2.0850136e-07
 -1.3474719e-01   7.4785783e-07
 -5.1566964e-01   7.0349202e-08
 -2.2188551e-04   1.2730258e-06
  8.4576720e-01   4.4823119e-07
 -1.6736321e+00   1.0341235e-07
 -4.2376661e-01   2.3532120e-07
 -1.5495207e+00   1.0356668e-07
  4.9174502e-01   6.6294467e-07
 -5.5940175e-01   6.0270054e-08
 -6.4533985e-01   4.6186398e-07
  1.1290908e+00   6.6754893e-07
 -6.3589394e-01   1.4335073e-07
 -8.1020969e-01   3.3033334e-07
 -2.5885570e+00   2.8599118e-08
  4.0713292e-01   2.2245305e-07
  2.0940915e-01   1.0378454e-08
 -1.3993784e+00   6.3504774e-07
  1.6920636e+00   1.0329324e-07
 -1.2677947e-02   1.2202787e-07
 -1.9186331e-01   2.7849248e-07
 -1.8331753e+00   4.7897753e-08
  1.1010235e-05   4.4217273e-08
  1.9082363e-01   3.9738335e-08
 -9.6247500e-01   4.2790376e-07
 -3.6692113e-06   7.9205807e-07
  1.7220998e-05   6.3614422e-08
 -3.7644177e-03   2.6099747e-06
 -2.3210344e-01   4.3595239e-07
 -1.6841532e-04   2.6363099e-07
 -8.8475430e-03   2.2710891e-07
  5.9700692e-06   4.3273076e-08
  2.0806301e-02   3.6125240e-07
  1.2447294e-01   3.0323116e-07
 -2.3363116e-05   2.3263959e-07
  5.4585098e-06   1.4931523e-07
 -4.5398891e-05   4.1725275e-07
  1.3881478e-01   1.8910413e-07
 -1.8870914e+00   4.1222446e-08
 -1.3249619e-04   2.4752956e-07
  1.8165599e-06   1.5634320e-06
  1.5619432e-07   1.3145192e-06
  2.2984081e-05   1.5140166e-06
  4.4507007e-05   4.3261371e-06
  1.7795464e-06   2.5937464e-07
  4.4565382e-05   8.7902627e-08
  6.0235820e-05   1.5659797e-06
  3.4498773e-04   5.6529097e-07
  1.0074975e-06   6.5612844e-06
  2.4384373e-05   1.0288255e-07
  1.4560911e-05   3.4834266e-06
  6.1696504e-05   7.5785090e-07
  4.2340565e-05   4.6814157e-06
 -4.1512292e-05   6.9816309e-07
 -9.0405134e-05   1.1952055e-06
  1.9842329e-05   2.0168513e-06
 -1.1593718e-05   2.1687430e-07
 -5.2836683e-08   9.3425626e-07
  8.1005646e-06   6.2625259e-07
 -4.7512231e-06   2.5249881e-06
 -2.5399089e-05   1.7973235e-08
  2.7115616e-06   1.9070916e-06
 -1.4917830e-05   1.2761210e-06
  9.1471113e-05   1.1673427e-06
 -7.4982387e-07   9.4601882e-07
 -4.7288941e-06   1.5388555e-06
 -1.6671373e-05   4.3159425e-06
  1.3036137e-05   2.3811927e-07
  1.4312941e-06   3.1832107e-07
 -1.1047865e-06   6.0152345e-08
 -1.0675887e-05   3.4435134e-06
  2.1783990e-05   1.7173750e-07
  7.4886416e-06   2.1000660e-06
 -1.7663643e-04   3.7452457e-07
  2.5078600e-05   4.5879867e-07
  3.8259383e-05   6.1711620e-07
 -3.5382769e-04   2.3592777e-07
  2.1555810e-05   9.7457260e-09
  1.6891359e-01   1.0822476e-07
 -9.6665462e-05   1.0282490e-08
  1.5814211e+00   8.4752131e-08
 -5.3337924e-05   1.3869521e-06
 -2.0955720e-05   1.2967455e-06
 -1.9053039e-05   1.4907439e-06
  4.1477299e-05   1.6153112e-06
  3.6914203e-06   1.6787303e-06
 -6.4251685e-07   2.7229800e-07
  3.1728683e-05   2.8579913e-07
  3.1238200e-05   1.0370870e-06
 -1.1082930e-05   6.3685175e-06
 -2.2894061e-05   2.8405843e-06
 -3.1580992e-05   3.6950107e-07
  2.0392904e-06   5.0351541e-06
  4.1795411e-05   3.5176606e-07
  4.1595642e-05   3.7078016e-07
 -6.3160505e-06   3.3603118e-07
  1.1543380e-05   1.1047456e-06
 -1.1365717e-05   2.5988948e-06
 -3.8955659e-06   6.7834060e-07
  2.2261433e-05   4.0895807e-07
  2.3068240e-05   9.1452949e-07
 -1.2620209e-05   2.8988563e-07
  9.3553499e-06   8.2065171e-06
  2.8764438e-05   5.2711772e-07
  1.7045268e-05   2.5419081e-06
 -1.6802517e-04   1.0885658e-06
  8.4197291e-06   3.0743658e-07
 -1.8484065e-05   1.6065658e-06
 -8.2507786e-06   2.4371911e-07
 -2.1782053e-04   1.5905695e-08
  1.6758016e-05   1.7269907e-06
 -6.7009191e-06   1.9151191e-06
  1.2970950e-05   6.3141460e-06
 -9.1985285e-06   1.7393520e-06
 -9.3343954e-07   3.4009995e-06
 -3.7389622e-05   5.4564430e-06
 -1.0482942e-03   2.6221730e-07
 -2.0216174e-07   2.6654277e-06
  9.2693073e-05   1.3253507e-06
  2.2656573e-05   2.7754717e-07
 -5.5086322e-05   4.5546790e-06
  1.8539047e-05   1.6700657e-06
  2.6198127e-04   8.1636244e-08
  5.0207259e-06   1.1519563e-06
 -4.7800862e-05   6.6625212e-06
 -4.5671934e-04   1.4103322e-06
 -6.4476394e-06   3.1906842e-07
  1.4704945e-05   1.4128899e-06
 -6.3897620e-05   1.3435071e-07
  8.9670930e-06   4.4232831e-07
 -3.8206745e-06   2.4502513e-06
  3.2983583e-06   2.5730772e-06
 -1.4805877e-05   3.2895080e-06
 -2.3481721e-06   6.8603669e-07
 -4.6014407e-08   4.7833319e-06
 -2.9171297e-05   8.4469111e-06
  2.1401243e-05   2.5721698e-07
 -5.1309567e-06   2.4500630e-06
  9.9156014e-06   1.4779977e-07
  2.3183800e-05   1.8959795e-06
  7.6360709e-05   4.2257000e-07
  6.8736026e-06   9.4881563e-07
  9.9102208e-06   2.2617835e-06
  1.1607139e-05   2.1922533e-06
  1.2256058e-05   3.1666618e-06
 -3.8726103e-05   8.3836380e-07
  3.1440803e-05   3.8455789e-07
 -1.1180512e-05   2.0680066e-07
 -2.4726134e-05   1.2456957e-06
  1.1966006e-05   4.1131370e-06
 -8.2348386e-05   2.6425051e-08
  2.2686538e-05   6.4155647e-06
  5.1027496e-06   3.0669542e-06
 -1.9958627e-06   1.1675870e-06
 -2.5587933e-06   1.6835879e-06
 -8.9999821e-06   6.8470690e-06
  3.8717917e-06   5.5218834e-06
  1.1368570e-05   9.1743550e-06
  1.7213284e-05   2.1343102e-08
 -9.8939599e-05   7.7201960e-08
 -1.8104565e-04   6.0389311e-07
 -2.7614778e-06   4.7080910e-08
  2.6240426e-05   2.0769452e-08
 -1.2150215e-03   3.8778637e-08
  5.0429177e-01   5.3660745e-08
 -8.3766213e-07   8.0720565e-06
 -1.3595313e-05   4.3474859e-08
  1.8937899e-05   7.9454264e-07
  1.6003634e-05   3.0712522e-06
  1.4982208e-05   1.6461381e-06
 -9.9783929e-06   1.3986104e-07
 -2.9011424e-05   6.7777748e-08
  2.2938888e-05   5.7210030e-07
  8.0744358e-06   1.5515022e-06
  4.0249238e-06   1.4047732e-06
  1.0939744e-05   5.8502150e-07
  2.6672198e-05   5.5103856e-06
 -3.2437877e-06   1.9259613e-07
  1.1440917e-04   2.8431911e-08
  7.6103674e-06   2.1805815e-06
  3.0936404e-05   5.7686862e-07
  3.7671751e-04   9.8075091e-08
  1.2993740e-06   7.6253244e-08
 -9.0800619e-05   1.7315831e-07
  1.1252159e-05   3.2534679e-08
  2.9079818e-05   1.1877580e-06
  4.5521447e-05   4.4829594e-07
  4.7576515e-05   8.1630013e-08
  1.7921586e-05   1.4919011e-06
  1.3845605e-05   1.2652134e-06
  5.8298798e-07   2.9250040e-07
 -5.0794015e-06   2.2484740e-07
  3.3602050e-06   4.8008010e-06
 -9.7356706e-06   4.9925245e-07
  2.8061179e-06   1.5715832e-06
  3.0074732e-05   3.0539259e-06
 -3.2272135e-05   7.5736097e-07
  1.5783533e-05   5.7868778e-08
 -1.2352927e-05   2.6487669e-06
  3.9913768e-05   4.0120176e-06
  7.8802288e-05   3.1026918e-08
  1.3099580e-05   4.2871963e-07
  2.6833632e-05   1.3034693e-06
 -1.9664230e-05   1.4573234e-07
 -7.5904682e-06   6.0882982e-08
  5.7735405e-04   8.1998138e-08
 -1.3036669e+00   2.1016727e-07
 -2.1968447e-06   1.4109296e-06
  4.4608096e-05   2.7662182e-07
 -1.8050836e-05   1.7954272e-06
  9.3696399e-06   2.8542638e-07
  3.2781343e-05   6.6879458e-08
  9.1952661e-06   2.5143069e-07
 -3.9712766e-05   3.4306430e-07
  2.4651845e-06   2.7615079e-06
 -1.1241425e-05   2.8259033e-06
  5.0779895e-06   1.4766958e-06
 -1.0973501e-07   1.3718592e-06
 -1.0848856e-05   2.9814478e-06
  1.5366390e-04   4.3263231e-07
 -1.7096322e-06   6.6172345e-07
  6.1063569e-05   1.4226175e-06
  1.1018138e-06   1.9256640e-06
 -2.7844314e-06   2.2560548e-06
 -2.4567719e-04   1.1470598e-07
  1.0843381e-06   2.1680184e-07
  1.6672368e-05   2.9740767e-07
 -2.9707771e-05   1.5490310e-06
 -2.6602089e-05   7.0470778e-06
  7.7718283e-08   2.0844523e-06
  2.0893964e-05   3.8785041e-07
  3.2284701e-05   6.8687785e-07
 -1.1036635e-05   2.4913545e-06
  2.8103321e-05   7.4791211e-07
 -1.6515591e-05   1.4266200e-07
 -4.5501147e-06   1.9763502e-06
  1.4516362e-04   6.9252826e-07
 -5.1414354e-05   1.0251882e-05
  6.4386236e-06   1.5837899e-06
  3.0850374e-06   1.3002724e-06
  4.5342404e-07   6.7375686e-06
 -2.1051070e-05   2.7196529e-06
  6.9300276e-01   2.6144017e-08
 -1.5165280e+00   2.7025939e-08
  6.2657440e-01   4.5353232e-08
 -1.9664178e+00   1.2849992e-07
 -1.7671164e+00   9.8560044e-08
 -1.7422910e+00   5.2375615e-09
 -2.4686432e+00   1.4257091e-08
 -1.1070701e-03   1.7897477e-06
 -9.8402643e-06   5.9023193e-07
  1.7313749e-05   1.1392252e-06
  1.6524273e+00   6.4467935e-07
 -4.1436761e-05   2.9157425e-07
  7.0918119e-01   1.1467675e-08
 -2.6706288e-05   1.6537811e-07
 -1.2355340e-01   1.3490622e-06
  3.7746689e-01   2.1560967e-07
  2.9409027e-01   3.1722902e-07
 -3.5757504e+00   1.0324568e-07
 -2.2075388e-05   6.2183710e-07
 -6.7709245e-02   4.6104766e-08
  2.9905359e-05   1.3402163e-07
 -3.2309577e-01   6.2124093e-07
 -1.1756729e-02   1.1721215e-07
  1.5071501e-01   1.1042781e-07
  1.5157918e+00   1.0216599e-07
 -1.3916627e-01   1.8578763e-07
  2.5903496e-01   2.7585370e-08
 -1.1678617e-05   5.3193901e-07
  3.5519613e-06   5.5215719e-07
  3.2666466e-01   8.8797037e-07
  4.6153134e-01   5.7695053e-07
 -1.8907686e+00   2.5182530e-08
 -1.2733671e-05   9.3934588e-08
 -1.7829528e-02   1.0064890e-07
  2.5851883e-05   1.1269901e-07
 -1.8548855e-05   6.3539014e-06
  1.3039244e-05   1.8517313e-06
 -1.0832076e-05   3.2613768e-06
 -1.8669719e-02   6.4927400e-07
  1.7266804e-06   5.5359487e-06
 -2.7571316e-06   4.1410124e-07
  3.5877703e-05   1.5659340e-06
 -6.5828621e-02   4.7332489e-09
 -1.0903918e+00   1.5686371e-08
 -4.2188722e-03   2.0471226e-08
 -2.4560812e+00   1.9605100e-08
  5.3508264e-01   1.9027999e-08
 -9.8151773e-02   1.8752866e-09
 -1.9311470e-01   2.2544449e-09
 -1.3775535e+00   3.6849298e-07
  7.8530687e-01   3.7218868e-07
 -5.6940098e-05   3.5583847e-07
 -1.7808121e-01   1.0479722e-07
  1.0753496e-01   5.2804575e-07
  1.7427322e-01   2.3935224e-08
 -2.2034994e-03   9.9699541e-08
 -6.5186393e-01   4.8503537e-08
  3.7963405e-01   7.5583962e-08
  1.2107221e+00   3.0855725e-07
 -1.1465942e-01   7.6658651e-08
 -5.2170362e-02   3.2787486e-07
 -3.9010024e-01   2.5925733e-08
 -1.6594940e-01   1.7421189e-07
 -4.6492538e-01   1.3934743e-07
  1.2936175e-01   6.7582462e-08
  6.4715302e-01   2.8255999e-07
 -2.3199153e-01   8.2960270e-09
 -1.5862626e-01   3.4304426e-07
 -3.8158710e-03   4.4915126e-08
 -1.5892085e-02   9.1200754e-08
 -2.9944450e-01   1.8595145e-07
  1.1932781e-01   1.3339978e-07
  1.6393630e-01   1.5673115e-07
 -1.3280176e-01   2.4081308e-08
 -1.1786000e-01   9.3750558e-08
  1.9303007e-02   7.7371269e-08
 -8.7629616e-02   1.1296351e-08
  1.2005650e-04   2.9058617e-07
 -1.4729535e-06   2.8553859e-07
  5.5770888e-06   6.7130782e-07
 -2.1338673e-02   9.9287902e-09
  5.2077827e-05   6.9386334e-07
  2.6287822e-02   4.7700104e-07
  8.3629111e-06   3.1261013e-06
  3.0804284e-05   1.4302852e-07
 -4.4494905e-06   4.1111232e-07
  5.2339391e-07   5.9146252e-08
  9.9514483e-04   4.2483016e-08
 -2.0888221e-05   2.1181260e-07
 -1.6960195e-04   2.2398368e-07
  1.6837665e-01   4.9614865e-08
  3.9912601e-07   9.0539061e-07
 -1.1317708e-04   1.5504204e-08
 -4.2760107e-06   1.7514546e-06
  3.1141517e-06   1.0579114e-06
  2.2057288e-06   2.1542819e-06
  4.9787461e-05   2.8042581e-07
 -2.6513555e-05   3.1515674e-06
 -3.6448157e-05   5.2369074e-07
  1.5282500e-05   1.1405731e-07
 -6.2477928e-05   1.2345998e-07
 -1.8880597e-05   6.8473025e-07
 -1.2465447e-05   2.2010186e-06
 -3.5508150e-05   2.2314345e-07
  7.3195014e-07   1.2135827e-07
 -1.6994421e-04   3.4697774e-07
 -6.4187634e-06   1.1392169e-06
 -2.7573271e-05   1.7613092e-06
 -4.4817745e-05   7.5426163e-07
  1.3582292e-05   2.1340898e-06
 -4.4370090e-06   8.4596775e-07
 -6.0811271e-07   2.0519576e-06
 -6.4994187e-05   4.4225416e-07
  1.0176594e-05   2.4060598e-06
  5.4785269e-06   5.8317510e-06
 -1.9334435e-05   9.0877580e-07
  6.5268449e-07   9.4377668e-08
  5.2704880e-05   5.7658283e-08
 -4.2459156e-05   1.0932973e-07
  1.4213799e-06   5.7531525e-07
  1.9675413e-06   1.1393954e-05
 -5.6679433e-05   1.4358311e-06
  2.1094231e-05   1.4352747e-06
 -4.7802195e-04   1.1163086e-06
 -7.4357931e-06   2.9866801e-06
 -6.6359617e-06   8.5418554e-07
  3.3616401e-02   2.4779967e-08
  4.3543917e-01   4.3599066e-08
 -3.6723718e-01   5.3228653e-08
  1.9136322e+00   7.7792478e-08
 -1.1300832e-01   4.1269431e-08
 -1.5670174e-01   2.7060539e-08
  4.1476062e-01   3.3787169e-09
  1.2117520e-03   1.5906721e-06
 -4.0455263e-05   1.0266564e-06
  1.6799060e-04   1.3695183e-06
 -3.9707962e-02   1.7781565e-07
 -2.7727414e-05   6.0591702e-07
 -5.3052288e-02   8.0183042e-08
  1.7716849e-05   8.1776648e-08
  2.9691443e-01   4.6747965e-07
 -6.4803727e-02   4.7427733e-07
 -9.0575442e-02   1.2489707e-07
  1.2449600e-01   6.5291843e-08
  4.0922396e-06   4.8353371e-07
 -1.9934124e-03   9.9129188e-08
  2.0566398e-05   1.2789127e-08
  3.0040979e-01   9.2810531e-08
  7.1411906e-04   1.6790469e-07
 -1.0227116e-03   5.2226642e-07
  4.1452533e-01   8.3743977e-08
  3.7978098e-01   3.3205498e-07
 -3.4254590e-05   3.0670023e-08
  3.6914334e-05   4.0599767e-07
  3.3334702e-05   7.5182629e-07
 -5.1758543e-05   1.1645765e-07
 -4.8498951e-02   5.2220378e-07
  5.3307042e-02   1.5999477e-07
  3.7208240e-05   2.9908577e-07
 -4.8924394e-05   5.8459587e-08
  4.0737956e-04   2.1763900e-07
 -7.8219509e-06   8.7787498e-07
 -6.5507554e-04   8.5569113e-08
 -1.1345969e-05   1.4257545e-06
  3.4920238e-05   3.4729595e-08
 -9.3222252e-06   1.6534528e-06
  4.4859382e-07   6.9900364e-07
  3.0348301e-06   5.4144203e-07
  3.8123849e-01   5.7892724e-08
 -9.4169271e-01   3.5474120e-08
  3.8535144e-02   4.5362082e-08
 -1.2147852e+00   1.4939691e-07
 -2.0252166e+00   5.7465993e-08
  1.3788070e-01   2.2018284e-08
 -7.9498821e-01   1.5012841e-08
 -1.1564332e-05   1.8458038e-06
  1.0195544e-05   2.2930890e-06
 -2.3725447e-04   3.0600486e-08
 -6.7081208e-05   8.5086822e-07
 -1.7476201e-05   2.7118760e-06
  3.1576014e-01   4.6350497e-08