192
lattice="10.425475 0.0 0.0 0.000319 9.028927 0.0 0.0 0.0 60.0" energy=15.29546462 virial="111.88044570260053 0.021467928776170403 -1.5339169996162216 0.021467928776170403 110.00145554240969 -2.757624190972509 -1.5339169996162216 -2.757624190972509 90.02013677009587" properties=species:S:1:pos:R:3:force:R:3
Ne 2.95131 0.9785 17.87643 -0.379175 -0.070038 -0.182085 
Ne 1.4712 3.17886 17.91945 0.004637 0.086488 -0.269269 
Ne 10.40873 5.45706 17.7341 0.213521 0.016932 -0.521307 
Ne 9.13276 7.78963 17.64192 0.205596 -0.09737 -0.216527 
Ne 7.82713 0.81916 17.74228 0.162601 0.32999 -0.425094 
Ne 5.19503 0.65032 17.80203 0.335906 0.129225 -0.271303 
Ne 3.97716 3.21707 17.75753 0.154841 0.109299 -0.29228 
Ne 2.53686 5.58751 17.77946 -0.047604 -0.156873 -0.354856 
Ne 1.37177 8.05024 17.74288 0.219461 -0.286225 -0.39376 
Ne 0.32712 1.0853 17.79396 -0.333852 0.084169 -0.222748 
Ne 6.74542 3.24375 17.5634 -0.222033 -0.065135 -0.263364 
Ne 5.23635 5.50818 17.73118 0.15655 -0.383205 -0.369809 
Ne 3.91104 7.46187 17.64809 0.015925 0.466826 -0.2706 
Ne 9.25722 3.12573 17.73075 0.054891 0.022279 -0.122115 
Ne 7.88654 5.47034 17.80514 -0.112416 0.027308 -0.285473 
Ne 6.68265 7.68864 17.50748 -0.162908 -0.122781 -0.187322 
Ne 5.43514 2.53725 19.79121 -0.263639 0.164295 0.008534 
Ne 4.00641 4.74598 19.90641 0.125954 -0.063359 0.061202 
Ne 2.93713 7.00605 20.03546 -0.284318 0.222337 -0.008251 
Ne 1.35466 0.5591 20.03824 0.050739 -0.209401 0.100501 
Ne 0.30656 2.87987 20.27543 -0.334288 -0.210354 -0.11239 
Ne 7.76373 2.76003 19.82423 0.576998 0.077237 0.053653 
Ne 6.72209 4.97794 20.08669 0.044208 -0.02902 -0.145838 
Ne 5.33617 6.87232 19.67292 0.131049 0.401299 0.211824 
Ne 4.24108 0.15454 20.16849 -0.082478 -0.048252 0.048281 
Ne 2.99846 2.3637 20.00514 -0.144389 0.214151 -0.036818 
Ne 9.28615 5.3092 19.76444 -0.128231 -0.353651 0.536141 
Ne 7.81848 7.40768 20.13627 0.045522 -0.333399 -0.262651 
Ne 6.72219 0.55691 19.7931 -0.115475 -0.250145 0.191732 
Ne 1.56269 4.75511 19.79485 -0.05591 0.287347 0.335954 
Ne 0.29451 7.1805 19.62101 0.078921 0.056653 0.395436 
Ne 9.24186 0.21232 19.81374 0.219256 0.361613 0.101252 
Ne 10.38018 1.50437 22.32381 0.186174 0.015688 -0.123673 
Ne 9.13196 3.66439 22.24678 0.025305 0.233167 -0.171149 
Ne 7.85456 6.02861 22.22833 0.065997 -0.222492 0.10417 
Ne 6.61091 8.33746 21.9761 -0.311468 -0.18943 0.240537 
Ne 5.23776 1.33361 22.33067 0.114505 -0.153192 -0.01346 
Ne 2.74342 1.35389 22.20876 -0.219775 -0.232719 0.092125 
Ne 1.37797 3.72333 22.44338 -0.009373 0.041948 -0.085878 
Ne 0.2815 6.04343 22.17515 -0.287471 -0.241331 -0.296898 
Ne 9.04873 8.24862 22.34979 0.165979 -0.098115 -0.205903 
Ne 7.93486 1.36842 21.98675 -0.091347 0.151322 0.025962 
Ne 4.05941 3.4364 22.09396 -0.208736 0.279519 0.03015 
Ne 2.71095 6.0241 22.25539 0.017709 -0.20385 0.085489 
Ne 1.08667 8.32254 22.36012 0.426455 0.141463 -0.234169 
Ne 6.46986 3.53801 22.00465 0.195591 0.03525 0.115827 
Ne 5.31746 5.8311 22.12207 0.076105 0.10251 -0.170152 
Ne 4.06309 8.0383 22.55779 -0.07729 0.174335 -0.183676 
Ne 1.19702 1.05767 24.57118 0.156395 -0.335861 -0.072606 
Ne 10.19922 3.03999 24.6946 0.276861 0.116538 -0.043423 
Ne 9.33404 5.27895 24.39336 -0.342472 -0.11126 -0.014429 
Ne 7.93911 7.48713 24.39572 -0.037326 -0.142252 0.128875 
Ne 6.73807 0.59585 24.58208 -0.165391 0.027744 0.013744 
Ne 3.79027 0.65954 24.63052 0.259878 0.030898 -0.027296 
Ne 2.69099 2.82931 24.29275 0.208227 0.402989 0.235541 
Ne 1.32891 5.32826 24.58557 0.399709 -0.393269 0.010015 
Ne 0.13473 7.29838 24.25536 -0.171451 0.477791 0.342245 
Ne 9.28384 0.7436 24.34938 -0.336415 -0.114475 0.076313 
Ne 5.52162 2.82924 24.31317 -0.619036 -0.096349 0.211594 
Ne 4.32497 5.08473 24.14731 -0.363785 -0.100928 0.172447 
Ne 2.6345 7.50351 24.60106 0.023566 -0.124152 -0.283888 
Ne 7.75091 2.93072 24.16064 0.489987 -0.199306 0.001476 
Ne 6.78305 4.94859 24.80974 -0.053248 0.413317 -0.14081 
Ne 5.43539 7.26053 24.41656 0.048006 0.103253 0.213638 
Ne 5.14112 8.86292 26.70453 -0.004713 -0.110568 -0.000924 
Ne 3.67077 2.15843 26.95309 -0.022669 -0.250273 -0.186426 
Ne 2.1085 4.01511 26.75797 0.392913 0.213853 -0.389 
Ne 1.03885 6.71605 26.74607 0.193425 0.023025 -0.047383 
Ne 10.24077 8.90659 26.45737 -0.08718 0.013274 0.034459 
Ne 7.83435 8.66132 26.83112 -0.4072 0.475502 -0.052632 
Ne 6.15596 2.16487 26.949 0.248414 -0.128546 -0.252595 
Ne 4.95311 4.33679 26.51683 0.052618 -0.065656 0.103448 
Ne 3.56182 6.30202 26.53086 0.096949 0.106527 0.048768 
Ne 2.29364 8.82786 26.53191 0.220324 0.125801 0.2542 
Ne 8.71422 2.26068 26.48017 0.002522 -0.204229 0.203201 
Ne 7.83013 4.54001 26.95367 -0.109383 -0.164783 -0.15879 
Ne 6.52972 6.51119 27.00975 -0.421965 0.253885 -0.215659 
Ne 1.0318 1.8787 27.01389 -0.157383 0.254841 -0.278178 
Ne 10.36749 4.57795 26.85081 -0.512212 -0.125844 -0.045729 
Ne 9.06989 6.73129 26.62639 -0.028964 -0.279386 -0.017747 
Ne 10.18015 1.39755 29.0187 -0.593794 0.438594 -0.178306 
Ne 8.7942 3.61298 28.85047 0.031218 -0.124038 0.261699 
Ne 7.59259 5.99576 29.07696 -0.089964 -0.048532 0.071707 
Ne 6.06281 8.26771 29.29193 0.000755 -0.0779 -0.663887 
Ne 4.8634 1.52156 29.10954 -0.293579 -0.301645 -0.30459 
Ne 2.08303 1.41013 29.05666 0.618013 -0.007154 -0.026033 
Ne 0.85446 3.90532 29.06399 -0.168573 -0.074 -0.135886 
Ne 10.21978 6.30615 29.03418 -0.211215 -0.571248 -0.051269 
Ne 8.87688 8.28127 28.99451 -0.329557 -0.081401 -0.018302 
Ne 7.45995 1.24005 29.18258 0.134272 0.275424 -0.413572 
Ne 3.20628 3.77428 28.81679 0.450429 -0.071048 0.247348 
Ne 2.26672 6.11347 28.82975 -0.03163 -0.347221 -0.144002 
Ne 0.75665 8.37211 28.84215 0.574701 -0.023493 -0.214583 
Ne 6.08354 3.44996 28.98615 0.311273 0.527553 0.045581 
Ne 4.84545 5.69806 28.92044 0.10047 0.12419 0.068768 
Ne 3.55619 8.07484 28.62168 0.211988 0.284372 -0.080893 
Ne 0.90154 0.86249 31.08323 0.195152 -0.215692 0.263698 
Ne 10.21282 2.97714 31.12646 -0.292697 0.031083 -0.025076 
Ne 8.77158 5.29367 31.05244 0.135267 -0.131112 -0.134648 
Ne 7.47005 7.69447 31.05543 -0.078034 -0.015258 0.028166 
Ne 6.12545 1.10124 31.13441 0.0682 -0.141319 0.433488 
Ne 3.62826 0.96319 31.06364 -0.11376 -0.106797 0.121661 
Ne 2.14177 3.02291 31.03304 0.345201 0.039251 0.228073 
Ne 0.9575 5.25826 31.1079 -0.209292 0.153919 0.130743 
Ne 10.34184 7.5829 31.21086 -0.044071 0.069515 -0.087259 
Ne 8.90765 0.70643 31.06146 -0.106272 0.034158 0.38183 
Ne 4.79931 3.23793 31.07648 -0.066657 0.161654 0.11647 
Ne 3.30637 5.35826 31.18817 0.339143 -0.006924 -0.017142 
Ne 2.27951 7.59205 30.64789 0.092691 0.191028 0.391415 
Ne 7.7615 3.02687 31.29532 -0.261047 0.046254 -0.027836 
Ne 6.02485 5.56369 31.52414 0.090051 -0.256639 -0.467863 
Ne 4.81018 7.73216 31.12357 -0.270189 -0.070717 0.317469 
Ne 2.35381 8.97925 32.89819 -0.039912 -0.046834 0.142107 
Ne 0.88406 2.2007 33.53297 -0.162654 -0.099521 -0.338291 
Ne 10.04632 4.13438 33.22815 -0.346215 0.440976 0.074993 
Ne 8.74123 6.89753 32.79547 -0.203409 0.153434 0.573363 
Ne 7.29086 0.03807 33.2718 0.128345 -0.185433 -0.216447 
Ne 4.86938 0.45433 33.58232 0.036668 -0.424494 -0.208659 
Ne 3.20549 2.17262 33.48177 0.299591 -0.054846 -0.56586 
Ne 1.9242 4.46198 33.3738 0.200188 0.155664 -0.257718 
Ne 0.5294 6.62332 33.47348 0.236449 -0.003146 0.031819 
Ne 10.37358 0.07038 33.43601 -0.283914 -0.275803 -0.119334 
Ne 5.79407 2.68384 33.37889 0.256027 -0.23333 -0.755763 
Ne 4.59214 4.75489 33.42799 -0.149741 -0.131236 -0.063443 
Ne 3.03654 6.7815 33.37892 0.168557 -0.094629 -0.066243 
Ne 8.60462 2.18242 33.58257 -0.026417 -0.124228 -0.297884 
Ne 7.64114 4.82601 33.2504 -0.205071 -0.252594 0.196039 
Ne 5.67599 6.90078 33.41228 0.148444 0.341646 0.233622 
Ne 9.7084 1.02394 35.57436 0.025476 0.297313 0.133749 
Ne 8.73607 3.57276 35.52301 -0.333688 0.035001 0.164937 
Ne 7.17542 5.65262 35.55606 0.231437 0.008721 -0.113493 
Ne 6.0946 7.95361 35.75326 0.287256 0.2228 -0.459745 
Ne 4.43468 1.45803 35.72485 0.185831 0.132737 -0.131544 
Ne 1.87696 1.28942 35.49198 0.15791 -0.145679 0.23852 
Ne 0.69778 3.43444 35.58604 0.01254 0.272091 0.127774 
Ne 9.77164 5.88507 35.55927 0.032172 -0.172874 0.030613 
Ne 8.68182 7.96504 35.26107 -0.235151 -0.044364 0.005971 
Ne 6.99255 1.30335 35.23943 0.114505 -0.060803 0.400895 
Ne 3.09806 3.58596 35.18445 0.316463 0.353672 0.747923 
Ne 1.93261 5.92272 35.52566 0.292269 -0.127322 -0.009671 
Ne 0.96859 8.09662 35.769 -0.17372 -0.031489 -0.099969 
Ne 5.84577 3.40641 35.41807 0.104198 0.531457 0.712351 
Ne 4.80039 5.78968 35.6738 -0.363716 -0.156884 -0.02174 
Ne 3.55203 8.18136 35.44439 -0.133776 -0.107805 -0.104149 
Ne 0.75424 0.48647 37.89892 0.230043 0.20256 0.124714 
Ne 9.94484 2.61058 37.58029 -0.0179 0.188678 0.227131 
Ne 8.7119 5.00074 37.89462 0.432606 -0.28508 -0.336479 
Ne 7.47505 6.9466 37.73279 -0.049372 0.744562 -0.122799 
Ne 6.28806 0.41202 37.71738 -0.021142 0.178638 -0.00098 
Ne 3.52378 0.57645 37.58946 -0.285933 -0.003098 0.409098 
Ne 2.30209 2.99419 37.6813 -0.269882 -0.146875 0.032583 
Ne 0.87046 5.25653 37.57528 -0.037242 -0.278245 0.166966 
Ne 10.02733 7.26938 37.96969 0.241083 0.195713 -0.598213 
Ne 8.72291 0.36543 37.81713 -0.156807 -0.010312 -0.022811 
Ne 4.7023 3.01193 37.76178 0.026986 -0.075572 -0.019711 
Ne 3.38444 5.29483 37.91117 0.152668 -0.001063 -0.174392 
Ne 2.14973 7.49349 37.93642 0.158381 -0.07084 0.052246 
Ne 7.19834 2.92405 37.91334 0.323205 -0.544572 -0.474305 
Ne 6.26827 5.01169 37.83009 -0.537832 0.047897 -0.048147 
Ne 4.77939 7.36981 37.50084 -0.163009 -0.086582 0.641756 
Ne 4.82783 0.15963 39.67421 0.160862 -0.29134 0.120903 
Ne 3.49064 2.26757 40.13274 -0.011467 0.021154 -0.281848 
Ne 2.26387 4.46246 39.93017 0.193886 0.059823 0.102466 
Ne 0.99656 6.76028 40.18322 0.301452 -0.237426 -0.029892 
Ne 10.04131 8.62934 40.20233 0.150237 0.573479 -0.258552 
Ne 7.55032 8.94655 40.21625 -0.254067 -0.122935 -0.140069 
Ne 6.04178 2.25527 39.89235 0.077993 -0.111274 0.138091 
Ne 4.86919 4.52189 39.91428 -0.181811 -0.122261 -0.097291 
Ne 3.66319 6.77184 40.1928 0.067573 -0.191955 -0.176884 
Ne 2.4949 8.85891 40.26973 -0.630611 0.408607 -0.711656 
Ne 8.90043 1.91034 39.90931 0.019564 0.101949 -0.058207 
Ne 7.79679 4.11988 39.87338 -0.122601 0.228857 0.239739 
Ne 6.23458 6.46733 39.97843 0.088363 0.304908 0.037302 
Ne 0.90908 2.22103 40.09834 -0.082822 -0.14309 -0.425458 
Ne 10.37619 4.48045 39.93284 -0.403301 -0.002806 -0.099952 
Ne 8.86511 6.66767 39.72507 -0.46226 -0.37534 0.750294 
Ne 9.98194 1.79712 42.36302 0.093398 -0.08694 0.226894 
Ne 8.8608 3.97048 42.03629 -0.055326 0.084871 0.266744 
Ne 7.5806 6.19133 42.16802 -0.032227 0.026178 0.152318 
Ne 6.19813 8.38129 42.24172 0.034325 -0.04195 0.195888 
Ne 4.76791 1.48207 42.08406 0.169106 0.283533 0.30384 
Ne 2.01486 1.94669 42.069 0.259687 -0.202597 0.610254 
Ne 0.86026 4.22761 42.3122 0.297811 -0.316464 0.22851 
Ne 10.11615 6.20339 42.24808 -0.106206 0.260548 0.19891 
Ne 8.99285 8.45743 42.308 -0.365059 0.015207 0.43864 
Ne 7.53309 1.87721 42.09101 -0.206273 -0.241966 0.222488 
Ne 3.53525 3.97743 42.16656 -0.063614 -0.345479 0.182092 
Ne 2.51495 6.18939 42.53961 -0.270936 0.155713 0.20476 
Ne 0.9991 8.52017 42.2092 0.207685 -0.004665 0.41326 
Ne 6.21743 3.97229 41.8301 0.116749 -0.224001 0.319663 
Ne 4.91501 5.84597 42.31431 0.209809 0.530583 0.272453 
Ne 3.68162 8.42054 42.03268 0.23158 -0.230202 0.833551 
192
lattice="10.425475 0.0 0.0 0.000319 9.028927 0.0 0.0 0.0 60.0" energy=15.34023975 virial="111.2531873698531 -0.214785041105429 -1.3768380330700551 -0.214785041105429 109.41889562294337 -2.263544569089415 -1.3768380330700551 -2.263544569089415 91.00914204061186" properties=species:S:1:pos:R:3:force:R:3
Ne 3.36299 1.65205 17.61522 0.039394 0.331399 -0.378374 
Ne 1.91014 4.42897 17.6634 0.199222 -0.284796 -0.124589 
Ne 0.49781 6.3741 17.7908 0.161642 0.11566 -0.261573 
Ne 9.92148 8.76133 17.77434 -0.025216 -0.008588 -0.183037 
Ne 8.57628 1.93839 17.94356 0.015536 0.106112 -0.321774 
Ne 5.99564 2.24764 17.84259 0.038571 -0.187278 -0.24112 
Ne 4.61752 4.24164 17.52087 -0.12379 -0.008396 -0.164144 
Ne 3.36338 6.46285 17.47512 0.044332 0.046875 -0.17587 
Ne 2.05518 8.50844 17.77837 -0.061341 -0.018214 -0.265409 
Ne 0.88216 1.83374 17.87164 -0.214 0.078102 -0.655397 
Ne 7.368 4.34767 17.76294 -0.085542 0.089665 -0.283562 
Ne 5.98289 6.47858 17.82447 0.048157 -0.026597 -0.303046 
Ne 4.80451 8.7783 17.93738 -0.081995 0.019679 -0.472624 
Ne 9.82421 3.94559 17.73178 -0.080099 0.379662 -0.718664 
Ne 8.57743 6.64317 17.79037 -0.291959 -0.01416 -0.151875 
Ne 7.32822 0.01066 17.77688 -0.125944 -0.3499 -0.188597 
Ne 5.85751 3.88075 19.85841 0.089751 -0.190454 0.119673 
Ne 4.48311 5.82988 19.80913 -0.273479 0.070411 -0.155962 
Ne 3.40802 8.2204 19.91911 -0.030633 -0.215262 0.057211 
Ne 2.07404 1.19633 19.69094 0.04348 0.166923 0.607021 
Ne 0.46826 3.42587 19.62223 0.467869 0.038739 0.689347 
Ne 8.45487 3.57652 19.83693 -0.247696 -0.085675 0.17787 
Ne 7.17305 5.96315 20.29108 0.144 -0.271455 -0.190411 
Ne 5.98537 7.98222 19.76499 0.088209 0.256381 0.354212 
Ne 4.57403 1.70849 19.83526 0.056396 -0.2228 0.191515 
Ne 3.18983 3.6715 20.25799 -0.228095 0.000293 -0.404216 
Ne 9.69691 5.77858 19.94985 0.114816 0.098102 -0.098922 
Ne 8.52923 8.06459 20.25629 -0.057542 0.111741 -0.222949 
Ne 7.12916 1.34963 20.18812 -0.085024 -0.014525 0.03257 
Ne 1.84662 6.0884 19.91093 0.248677 -0.373783 -0.081238 
Ne 0.73142 8.15048 20.06018 -0.171354 0.157477 -0.177908 
Ne 9.6808 1.17995 19.97043 0.148753 0.129999 0.21967 
Ne 0.51262 2.07531 22.39391 0.009765 0.019887 -0.245485 
Ne 9.58742 4.29502 21.85878 0.18402 -0.107024 0.321135 
Ne 8.64094 6.61399 22.18843 -0.174048 -0.132619 0.204625 
Ne 7.01866 8.73613 22.43923 -0.046986 -0.140176 -0.056146 
Ne 5.64405 2.05447 22.36271 0.025248 0.102841 -0.212031 
Ne 2.97088 2.23785 22.41944 -0.011478 -0.361988 -0.285455 
Ne 1.72347 4.32197 22.13642 -0.149906 0.127895 0.038315 
Ne 0.81033 6.80117 22.07548 -1.425683 -0.69456 -0.062583 
Ne 9.89643 8.89236 22.286 -0.460031 0.059585 0.013313 
Ne 8.24133 1.90827 22.52883 0.145847 0.139345 -0.304334 
Ne 4.40072 4.27577 22.21194 0.023998 0.098142 -0.211053 
Ne 2.87107 6.60936 22.32521 1.328762 -0.190508 -0.073209 
Ne 1.79883 8.744 22.31649 0.577192 0.762997 -0.049351 
Ne 7.15711 4.11818 22.29097 -0.023952 0.161237 -0.163011 
Ne 5.45658 6.56306 21.84089 0.04154 0.210433 0.369706 
Ne 4.38183 8.94746 22.00577 0.028632 0.014426 0.102454 
Ne 0.71164 0.29662 24.49565 -0.387445 0.18805 -0.112405 
Ne 9.85586 2.81566 24.42258 -0.497603 -0.772193 0.048688 
Ne 8.70128 4.83618 24.5341 -0.728481 0.23063 -0.101297 
Ne 7.2734 7.17767 24.62439 -0.166383 0.041204 -0.243914 
Ne 5.45863 0.72884 24.35878 0.219216 -0.014624 0.14244 
Ne 2.97806 0.63449 24.45451 0.478554 -0.109237 -0.19921 
Ne 1.75155 2.5856 24.84809 0.058683 0.362667 -0.160764 
Ne 0.50396 4.73451 24.46956 0.678839 0.40149 -0.321391 
Ne 9.65717 7.24181 24.30072 0.014876 0.028408 0.097251 
Ne 8.31193 0.69342 24.53717 0.05001 -0.194791 0.068713 
Ne 4.05379 3.06199 24.33432 0.468612 -0.327217 0.275344 
Ne 3.09674 5.15081 24.34683 -0.024139 0.060342 0.129849 
Ne 1.61184 6.99094 24.43857 0.273638 0.435878 -0.173678 
Ne 6.91588 2.96171 24.58684 -0.003777 -0.070673 -0.16705 
Ne 5.69557 5.20271 23.92131 0.143263 0.177416 0.466072 
Ne 4.36868 7.57264 24.40482 0.029683 -0.280106 -0.187469 
Ne 4.76439 8.62512 26.62479 0.126398 0.201316 0.106324 
Ne 3.51158 1.8341 26.9161 0.517675 0.174041 -0.207825 
Ne 2.17235 4.12143 27.03855 0.247095 0.034285 -0.098025 
Ne 0.94062 6.06021 26.37273 -0.326223 0.175463 0.618386 
Ne 10.12842 8.61196 26.48918 -0.029608 -0.047074 0.077094 
Ne 7.61333 8.65274 26.66558 -0.284847 -0.315911 -0.044822 
Ne 6.10701 1.81877 26.61412 -0.17066 -0.164524 -0.061431 
Ne 4.60335 4.26884 26.42925 -0.041786 -0.102142 -0.105529 
Ne 3.29971 6.59475 26.57343 0.091474 -0.224159 0.108327 
Ne 2.27029 8.81094 26.55409 0.043603 -0.641964 0.050004 
Ne 8.56503 1.77304 26.79151 0.342873 0.331817 -0.457149 
Ne 7.03524 4.19229 26.65123 0.295021 0.156002 0.006727 
Ne 5.89268 6.51026 26.48541 0.084057 -0.149089 0.130665 
Ne 1.22267 1.70097 26.91389 -0.913152 0.34854 0.032149 
Ne 10.11692 3.79964 26.75011 -0.16342 0.078093 -0.088718 
Ne 8.77318 6.22477 26.61311 -0.075687 -0.130069 -0.089273 
Ne 9.90192 0.94448 28.81381 0.754415 0.081536 0.065862 
Ne 8.63601 3.25178 28.70121 0.053569 0.217411 0.17257 
Ne 7.39322 5.51668 28.83406 0.101736 0.175309 -0.087886 
Ne 6.32814 7.97725 28.82566 0.083501 -0.481936 0.039877 
Ne 4.98575 0.83292 28.94435 -0.06895 0.253323 -0.054597 
Ne 2.15695 1.03034 28.92264 -0.033016 -0.219027 0.313176 
Ne 0.88478 3.29984 28.89894 -0.044367 -0.150171 0.323428 
Ne 10.09809 5.43698 28.85004 0.042536 -0.017378 0.032973 
Ne 9.14969 7.60942 28.49209 -0.362594 0.135328 0.401192 
Ne 7.70144 0.94168 28.77056 -0.763873 -0.079098 0.146179 
Ne 3.49549 3.01105 29.06501 0.130199 0.281051 0.099854 
Ne 2.23044 5.53486 29.38091 0.092738 -0.015052 -0.395523 
Ne 1.11349 7.7642 28.633 -0.072629 -0.080465 0.059127 
Ne 6.03271 3.09691 28.64431 -0.068097 0.097471 0.102828 
Ne 4.81666 5.29002 28.61822 -0.126749 0.205953 0.070966 
Ne 3.49087 7.82054 28.88564 -0.024318 0.067546 -0.358513 
Ne 0.80809 0.21 31.12276 0.044643 0.093304 -0.03553 
Ne 9.94424 2.60908 31.07473 -0.004093 -0.132519 -0.082117 
Ne 8.78599 4.75132 31.04364 -0.116769 0.082405 -0.001021 
Ne 7.59872 7.12862 31.18294 -0.2391 -0.175052 -0.084353 
Ne 5.97301 0.05289 31.39557 0.134284 -0.022142 -0.106397 
Ne 3.5776 0.47842 30.93004 -0.188848 -0.389175 0.032434 
Ne 2.21475 2.4846 31.22131 -0.227862 0.216161 -0.126427 
Ne 0.98774 4.76186 31.3024 -0.07139 -0.155367 0.051335 
Ne 10.04089 7.04938 31.09522 0.02536 0.009499 -0.1973 
Ne 8.6094 0.28672 30.90903 0.102965 0.013848 0.217325 
Ne 5.07181 2.33864 31.21794 -0.478916 0.287732 0.023327 
Ne 3.67885 4.60451 31.17484 -0.053763 -0.015917 0.019522 
Ne 2.22341 7.01599 31.32488 -0.041322 0.234135 -0.099333 
Ne 7.23152 2.44629 30.67315 0.535705 0.02212 0.177948 
Ne 6.14575 4.77729 30.77243 -0.001626 0.02123 0.174412 
Ne 4.60791 6.94893 30.63334 0.352024 -0.09724 0.323064 
Ne 1.63832 8.33189 33.41261 -0.002611 0.098225 0.061273 
Ne 0.15588 1.70978 33.30202 0.290282 -0.184116 -0.162784 
Ne 9.6914 4.07761 33.43932 -0.075677 -0.199973 -0.131757 
Ne 8.27759 6.05783 33.42186 0.026497 0.038429 -0.375392 
Ne 6.77665 8.37659 33.59636 -0.020804 -0.164347 -0.155637 
Ne 4.2623 8.18137 33.24973 -0.174051 0.298972 0.119877 
Ne 2.971 1.37354 33.13183 0.098084 0.096985 0.409049 
Ne 1.66266 3.67212 33.70852 0.163479 0.049624 -0.292881 
Ne 0.43502 6.20341 33.22203 0.068197 0.044352 0.185261 
Ne 9.15947 8.32857 33.40868 0.360875 0.117815 -0.0701 
Ne 5.53944 1.76631 33.55219 -0.026243 -0.228784 0.00868 
Ne 4.58356 3.94088 33.37922 -0.149494 0.005465 0.016847 
Ne 3.0449 5.97321 33.3458 0.066008 -0.07126 -0.140808 
Ne 8.09106 1.63375 33.19859 0.035445 -0.064377 -0.117523 
Ne 7.08512 3.78719 33.01716 -0.0192 0.224372 0.038713 
Ne 5.58537 6.29917 32.91383 0.291772 -0.311549 -0.136135 
Ne 9.53929 1.35079 35.365 0.052139 -0.065901 0.20242 
Ne 8.61798 3.55167 35.56851 -0.504829 0.095528 0.037427 
Ne 7.16811 5.90084 35.37738 0.591714 -0.761694 0.146666 
Ne 6.09863 7.67581 35.87658 -0.642044 0.745693 0.270762 
Ne 4.5248 1.00768 35.7584 -0.13464 0.135544 -0.095738 
Ne 1.79509 1.00799 35.54781 0.033768 0.161825 -0.053076 
Ne 0.52468 3.81514 35.89279 0.271858 -0.397739 -0.622377 
Ne 9.84373 5.82582 35.54193 -0.425753 -0.02655 -0.04261 
Ne 8.8049 8.15753 35.98065 -0.698836 0.013687 -0.130811 
Ne 6.94461 0.84647 35.36137 0.260228 0.405257 0.388046 
Ne 3.17531 3.43305 35.52859 0.318765 -0.015515 -0.107086 
Ne 2.06782 5.82688 35.44176 0.037408 -0.041 0.141032 
Ne 0.48833 7.84939 35.57273 0.831207 0.149545 -0.156028 
Ne 5.99699 3.45954 35.63323 0.006274 -0.079326 -0.116922 
Ne 4.85464 5.70169 35.22214 -0.514048 -0.089011 0.12442 
Ne 3.33353 7.89652 35.90914 0.015333 -0.046793 -0.089836 
Ne 0.29314 0.30462 37.57431 0.313076 0.765021 -0.151489 
Ne 9.93579 2.72662 37.60775 -0.272023 -0.096464 0.419106 
Ne 8.78498 5.29991 38.068 -0.176956 -0.290384 -0.545366 
Ne 7.53865 7.32293 37.78794 -0.202335 0.174282 0.322074 
Ne 5.84729 0.73879 37.90258 -0.088945 -0.01429 -0.259659 
Ne 3.12407 0.76523 37.91438 0.073634 0.018867 0.021536 
Ne 2.04374 2.95678 37.52918 -0.05682 -0.093399 0.214067 
Ne 0.8917 5.3565 37.50139 0.127054 0.113135 0.546302 
Ne 9.98745 7.33399 38.05178 -0.162305 -0.333082 0.163554 
Ne 8.23615 0.73733 37.92695 0.172293 0.052069 0.083124 
Ne 4.52559 3.04663 37.69384 0.273064 -0.217688 0.064212 
Ne 3.46925 5.13097 37.96887 -0.169077 0.18497 -0.129385 
Ne 2.00696 7.58765 38.12555 0.139354 -0.095476 -0.074884 
Ne 7.21221 3.07238 37.79996 0.054583 -0.004709 -0.053616 
Ne 5.97619 5.44563 37.60732 0.048699 -0.310404 -0.053462 
Ne 4.5121 7.31748 38.20025 0.013479 0.229003 -0.156712 
Ne 5.13278 8.90727 39.96228 -0.067651 -0.089935 0.180594 
Ne 3.83432 2.50178 40.13262 -0.092418 -0.229595 -0.150406 
Ne 1.98622 4.27373 39.78283 0.332456 0.147551 0.104217 
Ne 1.08969 6.59514 40.18485 0.068383 -0.05035 -0.089164 
Ne 0.03926 8.93815 40.00422 -0.128062 -0.078202 0.124936 
Ne 7.83075 8.79978 40.40963 0.015509 -0.133981 -0.282115 
Ne 6.48143 1.98285 40.03965 -0.085292 0.142158 -0.024794 
Ne 5.09846 4.60461 40.08426 -0.228029 -0.433768 -0.129986 
Ne 3.53216 6.39388 40.45155 0.077289 0.2011 -0.348688 
Ne 2.6592 8.99563 40.25671 -0.045787 -0.048246 -0.009175 
Ne 9.07314 2.29035 40.20724 -0.169452 -0.29142 -0.371189 
Ne 7.49291 4.42628 39.8789 0.061689 -0.171176 0.130316 
Ne 6.27376 6.57435 39.86987 0.223017 0.4258 0.171695 
Ne 1.0754 2.09652 39.63681 0.074312 -0.191504 0.094955 
Ne 10.04476 4.47144 39.82599 0.195356 -0.290906 0.113045 
Ne 9.11001 6.54955 40.28378 -0.372855 0.4471 -0.106929 
Ne 10.24325 1.2524 42.17219 -0.134153 -0.113795 0.242017 
Ne 8.93169 3.42197 42.24637 -0.142915 0.164602 0.437017 
Ne 7.77098 5.62681 42.09615 -0.220508 0.243471 0.300464 
Ne 6.05193 8.20447 42.21525 0.370104 -0.217793 0.236935 
Ne 4.64701 1.06314 42.13951 0.059287 0.304279 0.207916 
Ne 2.18131 1.39189 42.24879 0.132508 0.026404 0.214954 
Ne 0.87448 3.586 42.0434 0.277466 -0.189329 0.093966 
Ne 10.18037 5.70059 42.25135 0.169474 0.095575 0.416481 
Ne 9.04634 8.05961 42.53868 -0.093693 -0.042419 0.241182 
Ne 7.56173 1.33913 42.20765 -0.061942 -0.0547 0.432018 
Ne 3.77676 3.49009 42.38094 0.01856 0.036117 0.268845 
Ne 2.38805 5.52309 42.31169 -0.08683 0.002793 0.389116 
Ne 1.21665 7.89816 42.23198 -0.189439 0.140313 0.28416 
Ne 6.38652 3.58314 42.14488 -0.150718 -0.165473 0.207062 
Ne 5.23124 5.8395 42.24657 -0.045736 -0.029158 0.344252 
Ne 3.59463 7.81679 42.45768 0.068424 0.087709 0.342724 
192
lattice="10.425475 0.0 0.0 0.000319 9.028927 0.0 0.0 0.0 60.0" energy=15.53545203 virial="114.20243661965527 0.6470342080239864 -2.0149537091065683 0.6470342080239864 111.18131034723469 -2.5341321245670567 -2.0149537091065683 -2.5341321245670567 88.38984322323161" properties=species:S:1:pos:R:3:force:R:3
Ne 4.58851 1.76057 17.67926 -0.047397 -0.092617 -0.209643 
Ne 3.38949 3.84765 17.72789 -0.081768 0.118833 -0.30706 
Ne 1.88163 6.44672 17.79 0.099095 0.08279 -0.337958 
Ne 0.21384 8.44692 17.61706 0.091117 -0.05087 -0.303384 
Ne 9.52346 1.723 17.67299 0.469993 -0.061671 -0.30397 
Ne 7.22832 1.60481 17.49348 -0.493433 0.280178 -0.326225 
Ne 5.9677 3.74878 18.04231 -0.001355 0.149829 -0.078899 
Ne 4.6843 6.00385 17.89525 -0.227354 0.097957 -0.168129 
Ne 3.21303 8.43069 17.65832 -0.334568 0.159656 -0.324797 
Ne 1.91495 1.65607 17.78716 -0.038082 0.046195 -0.237988 
Ne 8.38698 3.89367 17.63498 -0.036158 -0.027916 -0.319498 
Ne 7.02709 6.25844 17.64695 0.132552 -0.018924 -0.149982 
Ne 5.45843 8.5331 17.83558 0.500661 -0.116112 -0.403482 
Ne 0.86838 4.32514 17.75728 0.052277 -0.393064 -0.373063 
Ne 9.54561 5.93302 17.84655 0.140568 0.523714 -0.336561 
Ne 8.09235 8.57718 17.90224 0.09757 -0.52266 -0.279961 
Ne 7.89099 2.79084 19.96747 -0.488241 0.080799 0.060551 
Ne 6.20296 5.02243 20.32632 -0.014095 0.173146 -0.142678 
Ne 5.19894 7.55674 19.99131 0.002438 -0.281755 -0.255771 
Ne 3.77114 0.99448 20.0011 -0.298656 -0.032531 -0.151625 
Ne 2.25272 3.23042 19.88559 -0.125176 -0.577769 -0.019575 
Ne 10.13596 3.18272 19.52323 0.267444 0.088776 0.013188 
Ne 8.62724 5.17273 19.87258 0.143643 -0.12377 -0.016203 
Ne 7.70167 7.29997 20.08811 -0.101323 0.306106 -0.149015 
Ne 6.30914 0.76479 19.77598 0.107178 -0.018685 0.147128 
Ne 5.16316 2.86266 20.34109 -0.070324 0.212149 -0.162622 
Ne 1.36859 5.58408 19.96711 -0.469304 -0.246039 0.251055 
Ne 10.38944 7.38201 19.91722 -0.299002 0.129201 0.096574 
Ne 8.8327 0.59663 19.90251 -0.093852 -0.037213 0.137872 
Ne 3.53708 5.08894 19.94356 0.816521 0.20902 0.043892 
Ne 2.65317 7.78239 19.94399 -0.062558 -0.109614 -0.156507 
Ne 0.73606 0.69543 19.73965 0.409795 -0.159305 -0.374753 
Ne 0.47041 2.02525 21.50479 -0.138678 0.129225 0.603739 
Ne 9.36225 3.95451 21.88383 0.142782 -0.064266 0.183736 
Ne 8.26079 6.12514 22.09729 -0.10201 0.099271 0.328943 
Ne 6.92143 8.57055 22.2011 0.292871 0.503509 -0.062782 
Ne 5.38102 1.60446 22.35769 0.280894 -0.012447 -0.212914 
Ne 2.77449 1.76826 22.38139 0.151748 0.119109 -0.169296 
Ne 1.90332 4.04681 22.17161 -0.121391 0.13814 -0.057031 
Ne 0.29604 5.99461 22.32655 0.183779 0.205549 -0.202158 
Ne 9.51534 8.70662 22.07013 0.128563 -0.178937 0.050714 
Ne 8.28389 1.74782 22.28665 -0.146425 0.009865 0.059273 
Ne 4.65083 4.20697 22.41769 -0.482101 -0.009764 -0.310892 
Ne 3.23093 6.40483 22.00775 -0.206893 -0.266809 -0.045346 
Ne 1.6328 8.72655 21.89394 -0.137788 -0.154872 0.132321 
Ne 6.87403 3.86844 22.51899 0.392202 -0.074654 0.011341 
Ne 5.7562 6.6593 22.1579 -0.300924 -0.740024 -0.268877 
Ne 4.22228 8.50838 21.85649 -0.073948 0.400828 0.464503 
Ne 0.78628 0.2269 24.339 -0.559602 0.248819 0.031165 
Ne 9.90601 2.655 24.22371 -0.135364 -0.243243 -0.178926 
Ne 7.90943 4.92941 24.66073 0.245637 0.014359 -0.489924 
Ne 6.57872 7.12164 24.16069 0.698424 0.056721 0.559426 
Ne 5.68388 0.38827 24.44559 0.073868 -0.155939 0.123287 
Ne 3.01989 0.43113 24.3846 0.385962 -0.194345 0.197686 
Ne 1.92509 3.05338 24.53174 -0.146111 -0.564797 0.101522 
Ne 0.2435 4.84561 24.49543 -0.008546 0.087551 -0.36426 
Ne 9.48877 7.26537 24.10124 -0.051935 -0.187211 0.237872 
Ne 8.69639 0.47045 24.59279 -0.165501 -0.111808 -0.01543 
Ne 4.34957 2.37946 24.28687 0.07037 0.461083 0.333148 
Ne 3.08623 4.91877 24.11168 -0.030471 0.339442 0.162799 
Ne 1.93622 7.2151 23.94499 -0.311553 -0.212579 0.158753 
Ne 7.28898 2.43132 24.72497 -0.137646 0.053345 -0.239231 
Ne 5.48874 4.84745 24.57984 0.15073 -0.041829 0.116814 
Ne 4.2589 7.07871 24.30113 -0.028779 0.213898 0.14883 
Ne 4.23026 8.63642 26.73396 0.01545 0.104208 -0.131335 
Ne 2.94449 1.94352 26.73503 0.131879 -0.181686 0.021323 
Ne 1.34401 4.19007 26.78061 0.385169 -0.09851 0.071739 
Ne 0.4139 6.22671 26.2686 -0.253838 0.730737 0.27221 
Ne 9.6909 8.78263 26.8368 -0.082857 -0.269176 -0.222284 
Ne 6.87369 8.4848 26.50853 0.41421 0.51808 0.00636 
Ne 5.70158 1.94954 26.71237 -0.299258 -0.503993 -0.226854 
Ne 4.08982 3.97306 26.36779 0.095729 0.151519 0.239153 
Ne 2.87192 6.14531 26.45719 0.179822 0.249494 0.029436 
Ne 1.71228 8.68557 26.76275 0.081485 -0.136186 -0.186526 
Ne 8.23567 1.63134 26.96133 -0.066231 0.103122 -0.293558 
Ne 6.93831 3.86069 26.67183 -0.213288 0.519339 0.045514 
Ne 5.6544 6.63635 26.5601 -0.368275 -0.686155 -0.000241 
Ne 0.55493 2.01902 26.53399 -0.282 -0.395227 -0.044289 
Ne 9.28925 3.89236 26.43424 0.193813 0.03133 0.090362 
Ne 8.12837 6.22944 26.58416 0.250331 0.287822 0.159526 
Ne 9.44617 1.21045 28.94474 0.214381 -0.3804 0.025784 
Ne 8.19988 3.4696 28.78701 -0.065152 0.027483 -0.007638 
Ne 7.06135 5.62054 28.77787 -0.063938 0.072963 0.0293 
Ne 5.80242 7.8909 28.80858 -0.173108 0.097014 0.07749 
Ne 4.50176 1.24512 28.83424 -0.31701 -0.302167 0.072021 
Ne 1.67743 1.08518 28.8945 -0.043151 -0.098823 -0.017577 
Ne 0.19342 3.3034 28.7956 0.458301 -0.027002 -0.091107 
Ne 9.79889 5.49341 28.69017 -0.264621 0.247582 0.030651 
Ne 8.27908 7.90263 28.94447 0.108005 -0.038075 0.051707 
Ne 7.00946 1.19034 29.02186 -0.067798 -0.221226 0.219545 
Ne 2.85316 3.1893 29.13387 0.20246 0.192483 -0.102416 
Ne 1.81981 5.54421 28.83687 0.08951 0.085382 0.06322 
Ne 0.38047 7.75694 28.72151 0.129494 -0.049764 0.224525 
Ne 5.73486 3.23936 28.74088 -0.219084 0.477925 0.285307 
Ne 4.5479 5.65846 28.74557 -0.216775 -0.113695 -0.06332 
Ne 3.0603 7.85194 28.82999 0.075385 0.003386 0.06353 
Ne 0.32859 0.19675 30.90944 0.123695 0.07271 0.016905 
Ne 9.43155 2.73792 30.73736 0.017975 0.05368 0.590969 
Ne 8.29367 5.10776 30.94797 -0.010878 0.060897 0.036646 
Ne 6.88127 7.28798 31.10785 0.272625 -0.060129 0.040103 
Ne 5.44883 0.37261 31.06143 0.211388 0.114433 0.023248 
Ne 2.90818 0.47263 31.13538 0.157321 0.283048 -0.01163 
Ne 1.38888 2.65013 31.13037 0.264791 -0.032326 0.068796 
Ne 0.36795 4.95884 31.60152 0.095822 -0.126719 -0.553597 
Ne 9.84967 7.01352 31.58417 -0.235426 0.217904 -0.440843 
Ne 8.41435 0.48864 31.47489 -0.326133 0.068059 -0.160273 
Ne 4.4924 2.68556 31.31365 -0.130147 0.073756 -0.167029 
Ne 2.89768 4.94976 31.03101 0.107502 -0.147432 0.11017 
Ne 2.08078 7.31221 31.12358 -0.385017 -0.281228 -0.016065 
Ne 7.087 2.93244 31.1695 -0.178903 -0.321947 -0.037235 
Ne 5.54793 4.92932 30.98315 0.089624 0.010125 0.05633 
Ne 4.46762 7.11717 31.22946 -0.069015 -0.013933 -0.036775 
Ne 1.67886 8.6812 33.28102 0.18331 0.250379 -0.154084 
Ne 0.19378 1.795 33.19709 0.061538 0.065084 0.0832 
Ne 9.31527 4.07901 33.3174 0.127101 -0.142784 0.036876 
Ne 8.27585 6.2557 33.48528 0.055966 0.103776 -0.18942 
Ne 6.88643 8.59206 33.36958 0.305467 0.177331 -0.006205 
Ne 4.52097 8.5947 33.37199 -0.367873 -0.066913 -0.069643 
Ne 3.30685 1.9776 33.38982 -0.739609 0.018053 -0.039922 
Ne 1.44895 4.11538 33.41624 0.439046 -0.182662 0.086661 
Ne 0.66882 6.55121 33.70115 -0.06417 -0.362953 -0.303887 
Ne 9.62159 8.54701 33.32803 0.052054 0.308374 0.003249 
Ne 5.53888 1.81901 33.49163 0.729425 0.126861 -0.33797 
Ne 4.54033 4.29558 33.6007 -0.252556 -0.362893 -0.302405 
Ne 3.09945 6.16754 33.37668 0.023251 0.179786 -0.123866 
Ne 8.11858 1.98619 33.80644 0.086209 -0.212104 -0.24873 
Ne 6.87775 4.10495 33.27938 0.05989 0.068329 0.041504 