 -3.5455844e-01   3.8578449e-10
 -1.1619601e-01   2.4936147e-11
 -6.6748917e-01   1.3876157e-10
 -3.3483061e-01   2.1471063e-09
 -3.0084653e+00   6.6918391e-09
  2.0958235e+00   3.9053645e-09
  3.9726037e-01   2.2893840e-11
  5.3661774e-05   2.3906901e-10
 -1.4127449e-04   3.3744287e-09
  1.1597100e-03   5.6150067e-09
  9.8676901e-05   7.0349095e-11
 -1.0243831e-01   2.2017109e-10
 -4.1179525e-04   1.0033964e-10
 -7.3583750e-03   8.1471878e-09
 -1.0311453e-05   1.0379370e-12
  8.0969177e-02   7.9160145e-09
 -3.2800206e-05   4.7091495e-09
 -1.3478860e-04   8.7865973e-12
  2.1427060e-03   1.1972080e-10
  2.6608734e-06   1.7601672e-11
 -1.5278919e-04   1.8059632e-08
  1.8146788e-04   1.3646135e-09
  1.2242257e-02   2.2068476e-09
  2.6127829e-03   1.4933292e-10
 -1.3400102e-05   6.8272332e-11
 -4.9589133e-05   1.1306297e-09
 -3.1449606e-05   2.1328890e-09
 -8.5778330e-03   7.0171008e-10
  1.6516921e-04   1.1165743e-09
  4.6602878e-01   3.1048997e-09
  1.3771557e-04   7.4154949e-10
 -2.0829857e-05   7.2532505e-12
 -1.6926793e-02   3.0720331e-09
  1.4800542e-03   9.4926194e-13
 -6.2907253e-05   6.2056196e-09
  5.5064105e-05   8.5998701e-09
 -2.9577152e-05   3.5334489e-07
 -1.0234106e-05   9.8236053e-10
 -3.5129528e-07   4.7791557e-09
  2.8878835e-04   4.0299647e-10
  1.0308261e-05   1.5811462e-10
 -1.1847621e-02   1.0410198e-06
 -9.2017622e-04   4.3571046e-11
 -2.3217683e-01   1.3682074e-11
 -9.8933965e-01   1.4715903e-09
 -4.7900502e-02   2.1367513e-10
 -6.4307117e-01   5.5630400e-12
 -6.4367324e-01   2.6728354e-11
 -1.0647200e+00   3.3977272e-11
  1.7343480e-02   1.9188977e-10
 -5.3640944e-01   2.5651814e-09
  5.5488549e-06   6.2559091e-09
  8.0565095e-02   5.6240218e-10
 -6.5180168e-02   7.2245911e-11
  2.0972304e-06   4.8680687e-10
 -2.1267930e-01   8.7287146e-09
 -4.9600829e-03   8.0067029e-12
 -9.8732024e-02   3.3902705e-09
  9.9321157e-02   2.5033753e-10
 -2.2355724e-02   1.6358119e-10
 -1.7073179e-02   7.1936579e-10
  4.7876150e-03   1.2199594e-09
 -1.6270513e-02   1.4039432e-08
  1.0880054e-03   1.0955715e-09
 -5.0691585e-03   6.9000902e-11
 -1.6375161e-03   1.4872179e-09
  5.3097267e-07   4.7810639e-10
 -4.6694316e-02   1.2994507e-12
 -3.0491427e-03   3.6196263e-10
 -8.9012332e-02   3.8622133e-08
  9.4922073e-03   2.9330985e-10
 -1.3268252e-01   6.6294398e-10
  1.1897669e-03   3.6822051e-10
 -2.6210906e-02   1.3342018e-10
 -8.0400750e-02   3.2414269e-11
  5.3608768e-05   3.5401335e-09
 -2.6547179e-01   1.6772498e-09
 -1.5298028e-05   1.3978863e-10
 -8.6128071e-02   5.6178786e-09
  7.2108458e-05   2.9177610e-08
 -1.1057588e-04   9.7763819e-10
  2.3606388e-05   1.7278122e-08
 -7.6016811e-05   5.1943911e-09
 -4.0400970e-05   4.6505555e-09
 -3.4924739e-03   1.5382707e-12
 -5.5201203e-01   5.5014240e-11
  7.1839673e-07   2.2348143e-10
  4.9865065e-04   4.4206855e-10
  2.3861024e-04   4.8938289e-09
  7.3180636e-05   7.2041109e-11
  1.3225581e-04   3.8419538e-11
 -6.7878129e-05   2.0065654e-08
 -9.8521332e-06   4.6517737e-08
 -2.7239460e-06   7.8992450e-08
 -9.9719946e-06   6.1236660e-09
 -2.3856772e-05   8.2076407e-10
  8.4135912e-08   2.2677126e-08
  1.0489044e-05   7.5413054e-09
  1.5712820e-05   1.9273643e-09
 -7.9104463e-03   7.8668023e-11
  5.6566819e-06   9.0691471e-10
 -5.0778901e-05   3.7958785e-08
 -1.6151608e-06   5.2986695e-09
 -6.9796632e-05   5.4779925e-10
 -2.2215042e-06   1.4009387e-06
  5.2534371e-05   7.3277939e-09
 -1.3347635e-04   3.3350678e-09
  6.3114159e-05   7.8045326e-10
  2.2936723e-05   1.1278097e-10
  4.9748105e-06   5.1301263e-10
  3.1302057e-05   2.9248863e-09
 -6.7115052e-06   1.0214833e-09
  2.0035543e-05   7.8765856e-09
  5.3131275e-06   2.7823333e-08
  1.9784663e-03   8.5109975e-10
  3.9480674e-05   2.3269315e-08
 -6.0239913e-06   4.4908848e-08
  5.1342772e-07   1.1762461e-09
  5.0847084e-06   1.2112359e-07
  1.6866770e-05   1.4576929e-07
 -3.6706206e-06   1.3782730e-07
  4.8564667e-05   1.0069000e-07
 -3.7146339e-05   6.4034687e-11
 -1.2533398e-05   2.4282718e-07
 -1.9911511e-05   7.1208001e-07
  1.8331632e-06   2.3661491e-06
 -1.5005295e+00   8.4385716e-09
  5.6310880e-01   4.6450867e-11
  1.3217654e+00   1.9902653e-10
 -2.7365997e+00   3.2911231e-08
  1.2236359e+00   2.6508848e-09
 -7.7384281e-01   6.0585723e-09
 -7.2475201e-01   4.7825904e-10
 -3.5406141e-05   3.9704379e-10
  2.4721995e-03   5.6538592e-09
  2.2917525e-06   1.6321778e-08
 -3.5102222e-02   3.2421621e-09
  8.8840080e-03   5.9242160e-11
  3.4775250e-05   2.8254094e-08
 -3.6395424e-05   3.2006671e-08
  1.2455664e-05   1.5623769e-09
 -3.1771997e-03   1.6398197e-11
 -1.2792008e-04   5.1639581e-10
  1.1613153e-05   1.6309606e-09
 -5.3761937e-06   7.1947461e-09
  3.2889675e-05   2.4367111e-09
 -9.1519369e-06   5.5720850e-10
 -1.3328122e-04   2.2922397e-09
 -2.1340007e-01   2.2796574e-09
  2.1713032e-04   3.7496433e-11
 -2.9521563e-05   1.2963397e-10
  7.2629926e-05   7.0428458e-10
  5.1820232e-05   1.9326823e-10
  6.9618267e-03   1.5514615e-10
  1.4739429e-05   1.2699553e-08
  7.6915036e-05   3.1163299e-08
 -3.9789029e-03   2.6730576e-11
  1.0790457e-05   1.5323524e-10
  5.8734580e-03   2.0668469e-09
 -6.1847371e-05   2.1804314e-10
 -4.3428932e-05   1.1939403e-07
  7.1067031e-04   7.5736386e-09
 -1.9860499e-05   1.6856906e-07
 -7.2289972e-06   3.3290493e-07
 -1.2689997e-06   3.3479235e-09
  1.3206752e-05   1.1189606e-10
  2.3768649e-03   2.8466799e-08
  3.6890837e-03   1.4250207e-07
 -1.0673924e-02   2.1704527e-10
 -2.8864172e-01   3.7874912e-12
 -8.1533206e-01   5.0540000e-10
 -1.5437497e+00   2.7210501e-10
  4.5637891e-01   2.5939361e-12
  1.8669748e-01   6.7480806e-11
  1.0688190e-01   1.3829833e-11
  1.6343105e-05   1.7038806e-09
 -3.8635684e-03   3.6176084e-09
 -1.3164799e-05   1.4414019e-10
  1.9419204e-02   3.2162920e-10
  1.0654619e-01   1.2865381e-08
  1.8926982e-04   2.0118962e-09
  6.6509324e-07   8.3208363e-07
 -8.3204486e-06   1.7992949e-10
  1.6909038e-05   1.0287716e-09
  7.9006050e-03   6.6811539e-09
 -3.5898083e-06   4.9010245e-09
  3.3555534e-06   8.4400936e-10
 -4.4634129e-05   1.2181013e-10
 -7.2126986e-06   1.0527315e-09
 -8.2812967e-06   9.3700017e-09
  3.3133994e-05   7.0423539e-10
 -4.4059646e-03   7.9758093e-09
  2.0592537e-05   4.9066740e-10
  5.8819205e-05   2.6337794e-08
 -1.2465970e-05   6.4089317e-10
  1.8311028e-05   1.0998814e-07
 -3.8023794e-03   2.4839937e-09
  1.7220835e-05   2.8057925e-09
  6.6334134e-05   1.1873470e-09
  2.3209968e-05   2.8126704e-10
 -8.9129562e-06   9.4339905e-09
  6.9736408e-05   2.2871616e-09
  8.5786160e-05   1.4037591e-08
 -4.0632087e-05   9.0696632e-09
  2.5489849e-06   5.6545524e-09
 -4.5770488e-05   4.8399414e-08
 -3.4618824e-05   1.7925291e-11
  1.9549807e-05   4.7196052e-09
  5.2984007e-05   2.5462566e-07
 -2.4333904e-06   7.3430391e-07
 -7.4742234e-01   1.9907263e-11
  9.2509079e-01   7.7875457e-09
 -2.0945649e-01   2.4922233e-11
 -1.1602768e+00   9.2627295e-10
  5.8025253e-01   6.2327241e-09
 -1.2361164e+00   2.2601317e-10
 -1.7448497e+00   1.6338273e-08
 -6.5139252e-01   7.6801526e-10
  1.7714858e+00   3.1074665e-10
 -2.8888243e-01   1.9946608e-10
 -3.2174110e-02   1.7032675e-12
  1.0179957e+00   1.0272649e-08
  1.4197177e-02   2.4209934e-09
  5.2454650e-01   9.4178021e-10
 -1.3059118e+00   1.5298692e-08
  2.0713208e-02   5.9962790e-09
  1.3890754e-01   2.3831773e-11
 -2.9330203e-01   6.1098446e-11
  1.1014550e+00   1.1546791e-08
  2.6133758e-01   2.1759356e-12
  4.2618734e-01   1.8811881e-09
 -2.4096078e-01   6.1441879e-11
  7.0337021e-01   1.3723754e-10
  2.7351668e-01   9.4218322e-10
 -3.2238930e-01   3.3135412e-09
  8.1040162e-01   1.7336504e-09
  5.4391023e-02   2.7814397e-11
  5.3801996e-01   5.6217125e-10
 -1.8728837e-01   6.8852217e-09
  2.3055155e+00   8.1629778e-09
 -7.1003594e-02   1.6488858e-09
 -9.2324287e-02   1.0194273e-08
  8.5166550e-01   1.5125076e-08
 -1.6674647e-01   1.6135165e-10
  4.5391536e-01   3.5961911e-10
  1.1742676e-05   4.2923105e-09
  2.6563194e-01   6.6910522e-09
 -6.3001588e-02   1.7555738e-08
  8.1143092e-04   2.7937666e-09
 -3.3102642e-05   4.4581547e-09
  1.0717374e-05   4.8158014e-08
 -1.2193105e-05   1.9020339e-09
 -1.3874378e+00   4.9817189e-10
  8.0752277e-01   1.0829588e-09
  7.5299066e-01   1.4980499e-12
  5.8946405e-03   7.4069338e-15
  7.4751377e-01   1.5283001e-10
  1.9171907e-01   1.3680612e-09
  1.0508505e-01   5.6886332e-12
  1.0583471e-03   1.9985509e-09
  2.3141398e-05   2.4683086e-08
  1.5183382e-06   2.5441652e-10
  6.3131796e-04   1.1549950e-10
 -1.9223883e-06   5.3722656e-12
 -1.7055079e-05   1.4570367e-09
  3.4606997e-05   3.4852602e-07
 -6.2145016e-05   3.2848206e-09
  1.6399638e-03   3.8793459e-08
  2.1415392e-05   2.6105254e-09
 -5.7974925e-05   2.0201899e-08
  1.1422446e-05   1.6335212e-10
  2.3654771e-05   2.1705959e-10
 -6.9195119e-07   2.7188724e-08
 -2.3843201e-03   1.1870602e-08
  2.3018646e-03   9.2482043e-11
 -1.3029008e-04   1.7347510e-10
  3.5263933e-05   4.6911266e-09
  1.4957584e-05   1.9722204e-09
  1.1949686e-04   5.5336791e-08
 -4.2632373e-06   5.7946008e-09
  6.6144729e-04   1.2439284e-09
 -1.5053027e-05   7.5035499e-11
  1.7226715e-02   1.4359632e-10
 -1.6909486e-05   6.1059966e-09
  5.3031941e-05   9.7889863e-10
 -1.3274053e-02   1.3928734e-08
 -2.8951203e-05   2.0487414e-09
  1.5932401e-05   5.5687051e-09
  7.1795970e-05   8.8366185e-09
 -1.1224167e-05   4.3727829e-07
  5.7746955e-05   2.9614455e-08
  1.1910071e-06   4.3718934e-08
  2.7893313e-05   2.4856203e-07
  4.3837213e-06   4.5889600e-08
  4.7629230e-02   1.1654605e-11
 -1.5938402e+00   2.2690965e-09
 -6.1586964e-01   2.1959625e-09
  1.0298047e-01   2.9246334e-12
  2.0306489e+00   4.0027408e-09
  1.3830155e-01   7.8584239e-10
  5.3140793e-02   1.0851548e-11
 -6.0872724e-03   5.0308625e-11
  1.3084038e-01   4.4017845e-10
  1.7340457e-05   2.9606290e-10
 -1.3197115e-01   5.4745262e-09
 -1.8428309e-03   6.0080196e-12
 -1.9202065e-05   1.8597086e-10
 -4.7681150e-03   1.6481319e-08
  3.5320353e-03   7.9197870e-11
  1.7208219e-02   1.9656923e-09
 -9.1037769e-03   7.5446209e-09
  2.1918591e-02   1.7105858e-10
  1.7217779e-01   1.9567017e-09
 -4.7518584e-05   6.0815082e-09
 -3.5508285e-05   2.9369789e-09
  1.2818276e-05   6.2738853e-10
 -6.8224147e-03   3.0196110e-09
  1.4989293e-04   1.0862714e-09
 -3.6954763e-05   8.5480147e-12
  4.4100316e-06   7.1247797e-08
  1.5376392e-05   7.2307833e-11
  8.8097418e-05   1.1958953e-07
 -1.2575870e-05   1.6836652e-10
  2.0205865e-05   3.6879482e-09
  5.4614361e-02   8.2697976e-10
  2.6813753e-02   4.6008852e-10
  2.4762144e-03   5.1851290e-10
 -5.4756375e-03   3.5527881e-09
  6.4460903e-05   5.2622892e-07
 -2.1520718e-04   3.5171718e-10
  7.7103164e-07   2.7718966e-07
 -3.7626128e-03   1.5485628e-13
  4.3237145e-05   1.0577906e-08
 -6.7515241e-05   1.6181928e-10
 -5.7055577e-06   4.6634938e-08
  3.2783080e-06   2.5342255e-08
 -1.0914754e+00   1.2705392e-09
 -6.9661602e-02   1.1736816e-09
 -5.3634858e-01   6.4673683e-11
  7.8576922e-02   2.5312619e-12
 -5.2746091e-02   1.1524508e-10
  9.9724674e-01   3.0392611e-09
  4.0607076e-02   2.9698931e-11
  1.1939047e-06   4.8161297e-12
  5.9937370e-01   3.5086511e-10
 -1.9929737e-03   3.1214189e-09
 -5.7026973e-06   1.6304832e-11
  1.4743975e-01   2.2397287e-10
  9.9872057e-05   4.8003951e-10
  2.5300382e-04   1.4561795e-09
 -5.1132176e-04   7.9320972e-10
 -1.6247300e+00   2.5475603e-11
 -2.3603526e-01   7.4932451e-09
 -1.5987855e-03   3.5598607e-13
  3.0184531e-06   5.7408633e-11
 -2.7118531e-05   8.7900321e-12
 -3.1197371e-05   6.9414557e-10
 -8.4039394e-04   8.5462742e-10
  2.6714299e-02   1.7465686e-10
  2.4083046e-02   1.0441628e-12
 -3.5363341e-06   2.3550051e-09
  2.4173544e-03   4.8363247e-11
  3.5110752e-03   5.4584026e-09
  6.7645095e-07   2.3266233e-08
 -3.5452101e-04   2.3108802e-10
 -4.2032632e-01   2.8607993e-12
 -2.1932632e-01   4.8257755e-11
 -1.4003897e-01   1.4931774e-10
 -1.0165877e-05   2.2792930e-09
 -4.7170422e-05   2.4942037e-10
  4.3814320e-02   2.2366529e-09
 -9.3821247e-05   4.1309161e-09
 -3.3888980e-05   4.9518238e-09
 -5.3205669e-05   4.2728343e-10
  8.0987252e-04   2.4068759e-08
 -3.0297539e-05   2.8962210e-08
  2.4963088e-06   3.8217857e-07
 -5.2661017e-06   4.0302533e-07
 -2.2359896e-01   4.6820292e-10
  4.7219273e-01   1.0729296e-10
  8.9601648e-01   1.5958856e-10
 -6.8244940e-01   1.0537924e-10
  3.3881620e-01   1.0487523e-11
  1.1119025e+00   3.9427422e-10
  3.4605637e-01   2.6309153e-09
  1.7927568e-06   1.4409948e-10
  2.2785809e+00   7.7616420e-08
 -5.5408518e-06   1.0797866e-09
 -5.7414785e-02   3.9669024e-09
  1.0383108e-03   2.8658123e-10
 -9.1588163e-06   7.0559342e-10
  4.0595494e-02   4.6091948e-09
  5.7078014e-05   4.1904120e-09
  3.9819233e+00   2.7343908e-08
 -2.9073986e-01   7.6701323e-10
  8.0736727e-02   1.7029027e-10
  9.0927936e-02   5.8948174e-10
 -1.0063182e-04   8.2021268e-10
  3.8827449e-01   3.9349935e-08
 -2.0913203e-05   4.5433168e-09
  4.5350108e+00   1.3743874e-08
 -2.9552075e-01   1.3351935e-09
  2.6724514e-02   2.4957314e-09
  3.7150609e-01   1.7514139e-10
  1.1482795e-01   8.1571105e-09
  6.6856521e-01   1.5530642e-10
 -2.5606787e-05   1.1330662e-08
  5.7311308e-01   4.6758650e-09
 -7.8000212e-01   1.9481419e-10
  1.0505690e-04   3.4098582e-10
  2.0034905e-01   2.5479908e-11
  2.5244239e-05   4.9276000e-10
  3.5820892e-01   7.4981948e-10
  5.6749882e-06   2.8307806e-08
  2.9962531e-01   3.3058130e-09
 -2.1177507e-04   2.1604204e-07
 -9.8547863e-04   1.5040483e-08
 -2.2189786e-05   8.9744489e-08
 -3.0402705e-05   1.1554869e-07
  7.9755220e-05   1.8383564e-06
  1.7652661e-05   1.3118603e-08
 -8.4099302e-06   3.3439353e-08
 -3.2725963e-03   1.0642762e-10
  1.1126750e-05   1.8614112e-07
  3.0560637e-05   1.5455439e-09
 -1.5098238e-05   8.3755253e-08
 -2.2538246e-05   5.5198819e-09
 -3.2543780e-05   2.6259469e-08
  1.8638679e-03   1.2512137e-08
 -7.4415057e-06   2.3136182e-07
 -2.6026348e-05   2.6235404e-07
 -3.3156164e-05   8.7421043e-08
  4.2818698e-05   3.0325947e-07
 -3.0915239e-06   1.9582415e-06
 -2.4259903e-03   3.8669983e-09
 -1.3250325e-05   2.5390259e-08
  3.1013566e-05   2.8676002e-08
 -1.5719223e-05   1.9022454e-07
 -1.1514143e-04   3.6708661e-07
 -3.2874270e-06   1.2511080e-08
 -1.0696671e-05   9.7417306e-08
 -1.8559535e-05   1.8346904e-07
  3.9623679e-05   9.2750049e-08
 -5.1429721e-05   1.8649166e-06
  2.1289028e-05   6.4026778e-10
  3.7550762e-05   4.4914326e-08
 -2.1992568e-05   3.1834767e-07
  1.0166498e-05   2.6616744e-09
  6.8801169e-06   6.8105201e-08
 -3.2444797e-05   3.2271217e-09
 -2.0651250e-05   7.4881674e-09
 -1.3479148e-07   2.6070398e-07
 -6.9201428e-06   8.5110896e-09
 -1.5165992e-05   9.2054449e-07
 -1.1330970e-05   6.6969535e-10
 -1.1922019e-06   8.4502583e-09
 -3.4437843e-03   4.1841761e-10
 -6.4041997e-05   7.5804474e-10
 -4.1566222e-05   6.6583760e-07
 -2.8180380e-05   4.5116249e-07
  9.0617414e-06   3.9333461e-08
  9.2311084e-06   5.2879617e-10
 -2.2034532e-01   6.4838945e-10
  2.0116756e-02   1.7448366e-10
  1.1005644e-03   3.5825975e-12
 -4.5163330e-01   1.9182836e-10
  9.3811221e-02   5.4849125e-10
  1.8184531e-01   4.9022980e-10
  4.1035037e-02   6.5902595e-13
 -4.7114776e-05   8.8489799e-10
  6.8143032e-05   6.4066624e-10
 -3.3819651e-05   1.0749516e-08
  3.6400565e-05   2.1969362e-09
 -1.4118066e-06   1.7881040e-09
  1.3180224e-04   2.8311349e-09
  8.8662290e-07   3.1096420e-08
 -1.1001506e-05   4.0912166e-11
  4.6730711e-06   1.4001921e-08
 -2.2509204e-05   1.7519588e-09
  1.7618226e-05   2.0354458e-11
 -1.8240797e-03   5.9387224e-11
 -1.3792438e-04   7.0847772e-10
 -4.7803016e-05   1.3288505e-08
  1.7351718e-05   8.5912655e-10
 -4.9004373e-03   9.1734567e-09
  6.8985093e-05   3.9484949e-09
  9.0705586e-04   1.7432177e-10
  2.6800724e-06   9.4969907e-09
 -1.3601923e-05   1.5962449e-08
 -4.6929988e-05   3.8040387e-08
  3.2736114e-06   5.3881577e-10
 -3.2397940e-05   1.8878006e-09
  2.6074478e-05   4.8399813e-09
  1.6264613e-04   1.4747040e-09
  1.0168833e-05   6.4847874e-09
  3.7453097e-05   3.0113057e-08
 -4.1989999e-05   3.5605478e-07
  7.1358418e-06   1.1070905e-07
  7.2203984e-06   1.1607924e-08
 -3.3519325e-07   3.0450786e-07
  5.3329513e-06   4.2685646e-09
  1.5660449e-05   1.6467812e-08
 -1.7669359e-05   6.3802861e-09
 -3.9402916e-05   9.7397151e-07
  8.0090389e-04   2.3936114e-10
 -2.4733815e-04   5.3074989e-10
  8.0504191e-01   9.7990685e-11
  2.1514588e-05   6.1054745e-11
 -1.2779883e-01   3.1756573e-11
 -5.0309682e-01   4.7241016e-09
  2.6236380e-06   9.3998964e-10
 -1.2952141e-05   2.1709203e-08
 -2.0039690e-05   5.4789751e-08
 -5.1445157e-05   2.5791398e-09
  3.6478683e-05   1.4000330e-09
  1.8398621e-05   2.4256184e-09
 -6.5307104e-05   3.6847542e-10
 -9.2564978e-06   3.5905448e-08
  3.0017665e-03   1.1550394e-09
  1.6354703e-05   8.2582851e-08
  1.6346790e-03   9.4347063e-09
  8.5623024e-06   9.6379127e-10
 -2.7307685e-06   1.3816085e-08
 -5.5001724e-06   6.6327024e-09
  4.6773803e-05   3.7327907e-10
 -3.1262430e-06   4.2423213e-08
  4.5121851e-05   4.5030802e-08
 -2.5717291e-05   1.8820638e-09
 -3.7623275e-05   6.6572952e-09
 -4.9326255e-04   1.9336290e-09
 -4.0396844e-04   1.8603458e-09
 -5.5520713e-06   3.7096461e-07
  2.6789394e-05   5.7985794e-10
 -1.8410216e-06   2.3649891e-08
 -3.2344804e-05   5.9421562e-10
  4.9004437e-05   9.0594482e-10
  3.4233537e-05   4.1761705e-10
 -1.5043173e-05   7.2376269e-09
  4.9873022e-03   1.0336958e-09
 -3.3711043e-05   5.7470095e-09
 -7.0378559e-07   1.0144625e-07
 -1.3902166e-05   2.9701823e-09
 -2.8158438e-06   1.0705246e-09
  2.5814134e-05   5.3325230e-08
 -3.6811323e-06   2.3059401e-07
  5.4205279e-06   4.4415609e-07
  8.9753512e-06   6.7219176e-08
 -9.5951335e-05   5.9646439e-09
 -7.8793237e-06   2.4512158e-07
 -2.1432677e-06   8.9559359e-07
 -1.0690436e-06   6.2300586e-08
 -1.3273593e-05   2.9051021e-08
  8.0035716e-06   3.5959590e-07
 -4.5274817e-05   3.0542783e-08
  3.3860400e-05   1.3973518e-07
  9.5729520e-06   6.6692770e-08
 -1.3577441e-05   7.5313900e-10
  1.0335328e-02   8.7241119e-08
 -9.9634617e-06   2.3875359e-07
 -7.9155234e-06   2.4168273e-08
 -1.7748365e-05   1.1069679e-06
 -1.0192674e-05   4.2189859e-06
 -8.6214059e-06   6.9349838e-08
 -4.2611060e-05   1.9361689e-06
  2.5016361e-05   2.9712099e-09
  7.4209799e-03   1.9723858e-07
 -2.6965827e-06   1.0304227e-08
 -3.2261702e-05   6.0950646e-07
 -1.1719744e-05   3.1720649e-07
  3.6081428e-06   6.7400481e-07
 -3.5219076e-05   2.6885509e-06
  1.7491737e-05   4.0396381e-07
 -1.4426080e-05   6.7511898e-09
  6.9507070e-05   2.1762088e-07
  3.4242134e-06   1.5938820e-06
  6.3445397e-05   1.8846598e-07
 -7.2526942e-05   6.2839484e-07
 -1.9493635e-05   3.8499664e-07
 -4.9391525e-05   1.3514995e-06
  8.5878319e-06   2.2321690e-07
 -2.0763006e-03   1.9578703e-10
  1.7111292e-05   9.1088253e-08
 -1.6562331e-05   1.2000063e-06
  3.1520543e-05   7.2266033e-08
 -4.7617978e-06   2.6877163e-07
  3.7037717e-05   2.1065844e-07
  1.5699596e-03   3.8713592e-09
 -5.3736505e-05   4.4078114e-09
 -1.9144923e-03   4.2188450e-10
  4.9377959e-03   5.8067119e-08
  3.3652100e-06   1.7767737e-06
 -2.3650155e-05   6.0512884e-09
  5.2490341e-06   2.8891407e-07
 -6.9763778e-06   2.7321389e-07
 -6.5535005e-06   2.3115463e-06
  4.8658632e-05   1.1852831e-07
 -4.3175473e-06   2.3054931e-09
  4.4349990e-06   9.8519898e-08
 -5.0731702e-05   2.3837872e-08
  2.3615030e-05   7.1169524e-07
 -2.0267778e-05   3.4662534e-08
 -6.5817171e-06   2.4322198e-06
  1.6520282e-05   8.6455074e-08
  5.6923120e-03   1.0567799e-07
  4.5814191e-05   1.8873513e-06
  1.3789264e-05   2.3067058e-07
 -4.2433188e-05   1.8230307e-06
  3.9548817e-04   7.2818702e-09
 -3.0767715e-05   2.9646749e-06
 -5.0007957e-06   3.4882206e-07
  2.5824195e-04   1.4649922e-07
 -1.4480800e-05   2.6280742e-09
 -3.5548151e-06   6.9269663e-07
  2.9102845e-05   8.0754921e-07
 -6.0295279e-06   5.0673198e-06
  2.0213283e-06   2.1223799e-07
  9.3927752e-05   8.4532505e-09
 -1.4816762e-06   6.0954864e-07
  2.9707272e-03   1.0498010e-09
  1.5499165e-05   4.6832362e-08
  1.4734697e-05   1.0401588e-08
  2.6214511e-05   9.0612289e-08
 -1.1305951e-05   2.8102312e-08
 -2.1836415e-04   1.1529962e-11
 -1.6503924e-05   5.2065747e-07
 -2.3563245e-05   1.5650306e-08
 -4.7290250e-06   4.4298707e-07
  2.4677826e-07   1.2689486e-10
  3.8736648e-06   7.2872052e-07
 -1.5158103e-05   1.1884590e-07
  2.0636618e-03   7.0668171e-10
  8.2140959e-06   7.5672996e-11
  8.6972796e-05   2.0899266e-08
  1.9929707e-06   5.1856709e-08
 -5.3689955e-03   1.0134216e-08
 -8.0164602e-05   2.8708851e-11
  1.5507461e-05   3.0775866e-09
 -1.8669976e-04   3.3715106e-09
 -2.9416428e-06   9.5606197e-08
 -1.2070931e-05   8.0620195e-09
 -1.6685032e-03   1.5489339e-07
 -6.6943094e-03   1.1701172e-08
  2.4981497e-05   2.3430330e-07
  6.0441824e-05   1.9228885e-07
  3.2993187e-06   3.8094896e-08
  4.9042221e-05   1.0218483e-06
 -1.9041496e-05   6.6127612e-08
  2.0332362e-05   8.9120118e-07
  4.7810031e-06   4.0004565e-08
 -8.7497774e-06   4.6424162e-09
  4.7991812e-06   2.8990510e-07
  4.7128294e-03   9.4815986e-09
 -6.4181268e-06   6.2296095e-07
  1.4747730e-05   5.2112261e-09
  4.9521750e-06   8.4132870e-07
  3.2348598e-03   2.6311582e-07
 -1.7713355e-05   3.5800266e-08
  6.4634746e-06   9.2035837e-09
  3.7450701e-07   2.1345909e-09
  2.5150923e-06   2.5914066e-08
  1.0938440e-05   1.4365733e-08
 -1.3950093e-05   5.3802351e-10
 -1.1537255e-05   2.0765931e-06
 -1.6870288e-07   1.9876151e-07
 -2.0363264e-06   1.6664521e-07
  1.4105617e-05   1.2601707e-06
 -3.2739827e-06   1.1640350e-07
 -1.2173922e-03   9.8312974e-08
 -2.4609400e-05   2.0247724e-06
 -2.1921300e-05   1.1986422e-08
  8.2584475e-06   2.7955736e-09
  1.9739700e-05   4.6024716e-06
 -1.4224590e-02   4.0567636e-12
  1.0192607e-03   2.4988911e-10
  3.9663711e-03   7.7297058e-12
  1.6838163e-02   5.4193811e-12
  1.6191567e-01   5.3170679e-10
  2.8609404e-02   1.7724717e-09
  5.2150376e-03   2.3663516e-10
  1.5250206e-05   1.5144865e-09
 -1.3277441e-04   9.3501100e-08
 -3.6089857e-06   4.4549317e-10
 -1.4573463e-05   6.6229805e-10
  4.5187444e-06   1.2438452e-09
  1.8425175e-05   1.7470370e-08
  8.6830114e-06   1.2091643e-08
 -3.5678881e-05   6.3395165e-09
 -3.5233719e-03   4.3724135e-08
 -4.7473313e-05   7.0781124e-11
 -7.1409163e-06   1.1788064e-09
 -2.1992042e-04   7.4292377e-09
 -2.5027295e-05   2.8552671e-09
 -1.4494269e-05   1.5839603e-06
 -6.5257368e-06   9.7956899e-08
 -1.1451642e-05   4.5397957e-08
  4.2089825e-05   6.1069980e-09
 -3.4413888e-04   2.0052012e-08
 -2.8538559e-06   1.2666518e-10
 -1.3048561e-05   3.2384200e-09
 -3.0713300e-06   1.5120042e-09
  5.2114545e-05   1.0010601e-07
 -6.5864765e-07   4.3259554e-08
 -1.5281383e-05   1.7175516e-08
  2.6075453e-05   1.7461456e-08
  4.4243076e-05   6.1531229e-09
 -1.1959174e-05   2.3448492e-09
  5.0533959e-05   2.3082205e-08
  1.0509466e-05   3.1898631e-07
  1.3382195e-05   3.9655347e-07
  2.1096581e-05   2.0281115e-08
 -1.1176864e-05   4.2721126e-08
  5.8108002e-05   3.9232377e-09
  2.7860844e-05   3.0444467e-09
  2.2265489e-05   2.3946125e-06
  1.3663736e-02   1.2506667e-12
 -1.2233090e-01   1.3227910e-10
 -6.7982532e-02   1.5737998e-10
 -8.5899502e-01   2.5638278e-09
 -2.5021759e-01   1.3917564e-11
 -5.5703980e-01   1.2597398e-09
 -9.7917467e-03   5.2577422e-11
  1.3838228e-03   1.0831762e-11
 -1.1957688e-03   2.3264236e-10
  1.2694622e-05   9.6420383e-09
  1.0499581e-02   2.7004938e-09
 -5.8509375e-04   3.1907151e-11
  1.8137416e-05   1.2961531e-08
 -1.3086651e-04   3.3117621e-07
 -8.6142421e-03   4.6790638e-10
  6.4504305e-03   7.6002120e-09
  2.3734882e-03   1.2641766e-08
  5.3500517e-06   2.0724808e-10
 -1.3762827e-04   1.2544887e-09
 -9.3841832e-04   8.2677330e-11
  5.7337220e-06   4.9511716e-08
  1.0087733e-05   1.3638923e-09
  1.8173870e-01   2.7599740e-09
  2.8240760e-03   1.2040304e-09
 -4.2175082e-04   2.1529616e-09
 -2.6512952e-03   1.6849038e-08
 -3.3143308e-02   2.7687890e-09
 -7.2936850e-06   2.5046829e-09
  2.1266659e-04   1.9493681e-11
 -3.5672998e-05   2.8023836e-08
 -2.9962687e-04   5.2108120e-11
  1.6532300e-05   1.5006398e-09
 -9.6067693e-03   1.5429535e-08
  3.9081831e-05   1.6176452e-10
 -2.6616233e-05   2.0163504e-09
  2.5134403e-04   1.3656182e-08
 -8.1899799e-03   2.4518829e-07
 -1.6482304e-06   2.7619400e-08
  6.6773561e-07   1.6427009e-09
 -1.5610045e-05   1.2685436e-08
 -4.6167247e-06   2.8272777e-09
 -4.0979899e-05   4.5034807e-07
 -6.3821062e-02   1.7371821e-11
  2.3490597e-02   3.0815457e-13
  1.4550430e-03   3.3953898e-10
  4.1030291e-02   7.3718164e-11
  1.2476570e-01   1.5444855e-09
  2.1613995e-02   9.1196335e-11
  8.5757067e-03   1.8174294e-10
  3.7819885e-03   3.2091874e-09
  6.3360356e-05   5.0341448e-10
 -1.7923772e-05   5.9439301e-08
 -2.2312071e-05   1.1725865e-09
  1.1115774e-05   1.9971449e-09
 -4.4036027e-05   8.8994978e-11
 -2.4985322e-05   1.1136398e-08
  3.1724499e-05   1.1000371e-09
  1.6472494e-02   8.0673518e-10
  1.5724741e-05   8.3112578e-10
 -8.3747782e-06   1.9628315e-09
  9.8287375e-05   6.0318939e-10
  5.0910804e-03   1.1264912e-09
  3.0627926e-03   7.0041244e-07
 -8.9626419e-06   1.5954649e-08
 -1.6725557e-05   1.0246345e-09
  7.7248109e-04   1.1704916e-10
  8.1490743e-06   7.2977552e-10
 -4.9173370e-05   1.0985431e-07
 -3.8938397e-05   8.6254781e-10
 -7.9132433e-06   1.4005066e-08
 -1.2337996e-03   2.5684057e-09
  1.2166794e-05   5.3289068e-10
  6.4376002e-04   1.2060495e-08
  5.3792387e-06   7.0139483e-10
  4.5298654e-04   3.6157644e-08
 -6.0732786e-05   4.1539199e-09
  3.2112512e-03   9.1263269e-07
  3.4205887e-06   1.7247784e-07
  1.9126168e-05   2.5330306e-07
 -1.2279812e-05   2.5879301e-09
  1.1008318e-05   1.7183753e-08
 -5.5261789e-06   5.5268682e-08
 -2.2205643e-03   1.9842621e-07
 -4.0863892e-05   3.3508861e-06
 -2.4594674e-06   1.2767710e-08
 -4.6638171e-03   2.6329260e-06
  8.5944675e-06   1.7878429e-07
  6.0096274e-05   3.4517316e-07
  1.7171194e-05   7.7248177e-07
  2.3384966e-05   8.1408950e-07
  3.1285708e-06   7.1422171e-08
  1.0932543e-05   1.2005785e-07
  8.7278659e-06   4.3312905e-08
 -1.9710304e-05   6.2638672e-09
  1.0446872e-05   4.2433825e-09
 -3.0457529e-06   1.7347783e-07
 -2.2730979e-05   1.6510370e-09
  9.6989806e-06   1.5840296e-08
  8.3145387e-05   2.7381191e-07
 -4.8487464e-06   1.2473417e-08
 -2.1331182e-06   3.4763076e-07
 -3.2271124e-05   8.3852565e-06
 -1.0743752e-06   7.0437045e-11
 -5.9345466e-06   1.1092981e-06
  3.3671928e-05   7.2893037e-08
  2.8006712e-03   3.0694773e-11
 -1.4601384e-05   6.8769879e-08
 -3.5179710e-05   1.9893719e-07
 -1.0863337e-04   4.3171102e-08
 -1.0613621e-05   1.6769295e-07
 -7.5444588e-03   4.8046888e-07
  1.6687598e-05   1.6727462e-06
  2.1418582e-05   2.3347906e-07
  1.7760080e-05   2.9292088e-10
  2.8630284e-05   8.6235246e-08
  2.6017081e-03   1.8537923e-08
 -2.9175337e-06   7.2180336e-07
 -1.1242004e-05   7.1342323e-09
  9.9621266e-06   1.4092029e-06
 -4.1900043e-06   3.7390986e-08
  7.6119359e-06   8.3362960e-07
 -7.6364986e-06   1.5309108e-06
  3.9670454e-06   5.6620763e-07
  1.4466428e-05   1.5433933e-07
 -8.3392169e-06   2.7688068e-07
  1.9688065e-05   5.1201596e-08
  1.4695033e-05   4.5117239e-09
  7.1835361e-04   8.3664395e-12
 -5.7004931e-06   2.3472319e-10
  8.5232532e-06   9.4648982e-09
 -1.5443631e-03   3.5629413e-10
  9.9401129e-03   1.3079131e-09
  8.1928893e-06   1.3689160e-09
 -1.4177803e-05   3.0208579e-08
 -2.6710202e-06   8.8609875e-09
 -2.7918934e-03   7.3543816e-08
 -1.9191040e-05   2.3229085e-10
 -1.5998310e-05   7.8324508e-10
 -1.4663846e-04   7.0549149e-08
 -4.2853026e-06   3.0648948e-08
 -1.3451793e-06   1.2759536e-09
 -2.2212673e-05   4.6147610e-09
 -2.4937031e-06   3.1698104e-07
 -1.2402802e-03   1.1525618e-09
  2.4288858e-05   2.7518627e-09
 -1.4338939e-06   1.4411654e-07
 -2.9161429e-05   1.0147879e-06
 -4.3448403e-05   5.7717003e-08
 -3.3824147e-06   1.3970754e-08
 -2.4469955e-05   2.2168200e-08
  4.0211900e-05   4.0147135e-09
  5.6122299e-06   9.4588921e-07
  1.2607145e-03   2.0395608e-07
  1.4935677e-05   3.4483273e-07
 -1.8537390e-06   4.2176133e-08
  1.0709454e-05   1.4679012e-08
  3.3257143e-06   1.0978560e-09
 -3.4354176e-05   2.3820395e-08
 -1.1115758e-05   3.4999736e-08
  2.7134734e-05   1.2676351e-07
  1.2466534e-06   7.9641019e-08
 -1.9342871e-05   8.4229976e-07
 -3.1109390e-05   3.3345938e-07
 -1.8363075e-05   6.8980448e-08
 -2.4584604e-06   8.8843933e-08
 -2.3282202e-05   3.3822780e-09
 -7.3452484e-06   2.2624631e-07
 -1.1706643e-05   8.7294403e-09
 -2.0798807e-05   6.1525348e-08
 -8.3785362e-06   3.1797132e-08
 -5.9774529e-06   8.0818783e-09
  3.8744296e-05   1.9623589e-09
 -1.0355810e-05   1.5466405e-07
  3.2668562e-05   1.0679604e-10
 -2.6730095e-06   9.3275993e-08
 -2.4572919e-05   2.2356453e-06
  8.2841325e-06   3.1128857e-06
 -2.2350103e-05   7.8609355e-07
 -2.6017486e-05   4.6377576e-08
  1.8091214e-05   5.8976124e-08
  3.0640869e-05   1.3433826e-08
 -8.5938821e-04   6.9463207e-10
  1.0690142e-05   2.8177908e-07
 -3.5460594e-06   7.9502132e-07
  4.1718717e-04   8.9631561e-07
  9.6889933e-05   1.2627713e-08
  2.5489731e-05   3.9395697e-08
  2.4859337e-05   9.6167106e-08
 -1.5941698e-05   2.8609643e-08
 -3.9773506e-05   1.9406293e-06
  1.0704237e-05   4.1353746e-07
 -2.5458485e-07   6.6325248e-07
  1.6634323e-05   6.8308850e-07
 -1.7430961e-05   1.2877361e-07
 -1.3146494e-05   9.2321550e-08
  1.3960409e-03   1.4238546e-09
  3.0662779e-06   5.0053632e-08
 -1.7876057e-05   1.5253845e-07
 -9.9844783e-06   9.2251851e-09
  1.1358902e-05   3.4276297e-09
 -1.0048605e-05   2.4971015e-07
  4.2365140e-05   3.0851706e-07
 -3.3041695e-05   8.1737505e-07
  2.4457882e-05   8.0974502e-07
 -2.7896217e-06   3.5250507e-06
  6.7902700e-05   1.6450087e-13
  3.4424968e-06   4.9197257e-07
  1.2635928e-05   1.7624814e-07
 -4.8440129e-06   5.9507056e-07
  3.3890439e-05   2.2011552e-08
  3.3724610e-02   4.4123812e-11
 -7.0277587e-02   7.6035378e-10
 -7.9556257e-02   1.7121345e-10
 -4.7003427e-01   5.4276514e-12
 -6.8424821e-01   1.9534936e-11
 -4.7801161e-01   2.4846894e-11
 -9.4119087e-02   5.2761195e-10
  5.3941632e-05   2.4841498e-09
 -2.1786349e-02   7.6487623e-08
  1.5502061e-05   6.7790231e-09
  8.9485133e-05   6.0874042e-14
 -1.8088390e-01   7.1632478e-10
  2.4066618e-05   1.3772369e-11