  2.5225634e-02   5.4693570e-09
 -5.0286370e-05   8.5209022e-09
 -1.5085530e-01   1.4870750e-08
  8.7919503e-02   2.1076687e-08
 -4.3120384e-01   5.0782898e-09
  2.9754121e-04   8.5871834e-09
  1.7995313e-01   1.7536918e-08
 -3.3809054e-05   1.4546623e-07
  1.4556960e-05   5.6538943e-07
 -7.1659015e-05   6.8365914e-08
 -1.2156635e-05   3.3087136e-07
  2.0248204e-05   3.6704606e-07
 -2.6325560e-07   2.1686039e-07
  8.2206116e-06   9.1078590e-07
  2.2478935e-05   1.5299747e-06
 -4.4001554e-06   9.2382987e-07
  1.0293597e-05   1.2087883e-08
 -3.1904469e-06   7.5730100e-08
  2.1230706e-05   9.5072416e-08
 -1.1527361e-05   6.8455637e-07
 -4.4049025e-06   9.9333067e-07
  1.0661380e-01   1.2627355e-07
  7.2960102e-06   1.8842134e-07
 -1.9525583e-05   1.2861987e-08
  1.7931172e-05   8.6572257e-08
  1.3326870e-05   1.0664291e-07
  1.0912694e-04   4.4390055e-07
  7.7662817e-06   2.3458912e-07
  9.8737728e-05   1.6266235e-07
 -1.0701433e-05   4.2572378e-07
 -1.4185953e-04   1.5621488e-07
 -1.1386501e-05   1.1431700e-07
  5.7196256e-04   1.0787000e-07
  1.0769996e-06   9.4644818e-08
  7.2125795e-06   1.4577546e-07
  4.0720770e-06   1.0251707e-06
  9.4156176e-06   5.8689676e-07
  5.5425621e-06   1.9541319e-06
  4.2293304e-05   2.4690967e-06
 -6.2217259e-06   3.0525553e-07
 -3.3313325e-05   7.8808796e-07
 -7.9250494e-06   8.5601488e-07
 -2.0002753e-06   1.4639517e-06
  9.6176700e-06   4.8845941e-06
 -3.0111016e-06   7.7158035e-08
 -7.1703607e-06   5.1267193e-08
 -9.1968677e-06   5.8129569e-08
  2.0889855e-05   4.4983981e-06
 -4.9109867e-06   1.2036318e-06
  6.8728323e-06   1.4240320e-06
  2.3625102e-05   6.3532411e-08
  1.1909235e-05   7.1516251e-07
  3.4279631e-06   3.8888589e-07
 -6.7899100e-06   3.2180612e-08
  1.0905175e-07   3.0322742e-08
  5.6103369e-07   2.1612725e-07
  2.7016958e-06   4.2858244e-07
 -2.8360207e-06   2.0894167e-06
 -1.0941186e-05   3.5891333e-06
 -1.1599965e-05   1.7022683e-06
  5.0549515e-05   2.2240373e-07
 -7.3809283e-06   5.9110812e-06
  6.4267242e-06   1.4683791e-07
  4.0628188e-06   7.5416430e-08
  1.5274517e-07   3.5643627e-08
 -8.6331565e-06   4.5107080e-07
 -1.3291259e-06   2.2500551e-07
  1.3839190e-07   3.4739318e-07
  1.3630266e-05   1.0768437e-06
 -6.6201785e-05   2.2655032e-08
 -2.7376378e-05   2.7745820e-08
  1.0971436e-05   3.4932848e-06
  1.1602761e-05   2.8486537e-07
 -4.8880415e-06   5.0425371e-07
  7.1462921e-07   2.0297784e-06
  1.5118581e-05   2.8550673e-07
 -4.3487357e-06   2.7602405e-06
 -2.6295167e-05   7.5122199e-07
 -6.1365863e-06   1.9057852e-07
 -1.4800483e-05   4.3447191e-08
 -3.0636642e-05   2.1259513e-07
 -1.6777059e-05   5.5797602e-07
  1.0505890e-05   3.0401690e-08
  6.8581785e-06   1.5081784e-07
 -2.1856691e-01   1.3363589e-09
 -9.2381297e-06   2.3743247e-08
  2.1265353e-01   1.6010198e-08
 -5.4326866e-02   8.5591033e-08
  5.1208127e-01   1.6552668e-09
  1.7903229e-02   2.9682443e-08
 -1.9904017e-02   1.2726794e-08
 -3.9341992e-07   2.3186681e-08
 -7.6177297e-05   9.5310206e-08
  1.7999098e-04   9.1729625e-08
  5.8320140e-05   1.1505239e-07
  2.4540245e-07   3.5873808e-07
  2.7982105e-07   5.4758164e-07
  2.8568043e-05   2.3885696e-07
  6.7898204e-06   1.3090499e-07
 -1.0342525e-05   9.9745975e-08
 -2.6418336e-04   1.1581244e-08
 -5.5404387e-05   3.6870358e-07
 -1.6662452e-05   4.8956321e-07
 -2.5660338e-06   9.9481247e-07
  1.9613257e-05   3.4326544e-07
 -7.6436639e-01   1.4649255e-07
 -1.6217517e-05   2.1577216e-07
  9.1948074e-05   1.4096987e-07
  6.4689237e-05   1.2116794e-07
  2.1665542e-06   1.0931222e-07
  3.7217230e-06   6.0027327e-07
  6.0797438e-06   4.5464191e-07
  1.3900865e-04   5.0826410e-09
 -5.0916415e-06   7.7297436e-08
  7.9258101e-04   9.8656827e-08
  1.8218150e-05   6.6775918e-08
 -2.5419451e-03   3.5382115e-08
  8.8352563e-06   2.2193288e-07
  5.5413866e-06   7.0295691e-08
 -1.7180051e-05   9.9466604e-07
 -1.4163354e-05   6.8504573e-06
  2.0213065e-06   4.9852366e-07
  6.0611295e-05   5.5155289e-07
  9.0349986e-06   4.3917461e-07
  7.9605870e-06   3.0384001e-06
 -1.6538437e-05   1.4787855e-06
  1.2482393e+00   7.6745126e-09
  5.3978527e-01   6.3096559e-09
 -3.7393963e-01   1.6919258e-09
 -2.1632645e-01   9.3343484e-09
 -3.8899153e-01   8.6247065e-10
  2.2971585e+00   3.5143980e-08
 -1.8861716e+00   8.3248715e-09
  2.3002028e+00   3.4086845e-08
 -7.0365435e-01   3.8853408e-08
  4.5173103e-03   1.4484175e-08
 -1.0615777e-05   6.3284020e-08
  2.4273191e-04   1.3622973e-09
  7.3601133e-01   8.6374499e-08
  4.3135852e-01   3.6150258e-08
  3.9480245e+00   1.0099657e-07
 -1.1239109e-01   1.0671511e-07
  2.8535554e-02   4.8231108e-08
  1.2636595e+00   1.2699550e-08
  2.4504276e-01   3.5683712e-07
  8.2901591e-01   4.2152189e-07
  1.1310079e+00   2.2541821e-08
  2.8599632e+00   4.5710156e-09
 -1.0015866e+00   6.5147079e-09
  7.8247353e-02   1.4334160e-08
 -2.3094474e-01   2.3205935e-08
 -2.6411059e-01   1.7953212e-08
  1.2197938e+00   5.3269385e-08
  7.3365921e-01   1.0645548e-08
  1.7829547e+00   1.0772829e-08
 -2.9049230e+00   5.5971000e-08
  1.3091919e-01   3.4313583e-08
 -1.2941526e-01   1.4244482e-08
 -1.8856853e-01   5.0623676e-08
  1.1906947e+00   2.1531662e-08
  1.2835772e+00   7.7963691e-08
  9.0730119e-01   2.0750873e-07
  9.8924975e-05   4.2066114e-07
  6.0253566e-05   1.0857744e-08
  6.5270506e-02   5.6290929e-07
  9.4740481e-06   1.4113118e-06
 -6.4886308e-06   9.3329859e-08
  2.4749052e-05   1.4917040e-07
 -2.6206771e-01   3.1355846e-10
  5.6337919e-03   2.0611826e-09
 -4.5249825e-03   2.7911227e-08
  1.1723548e-05   2.7260432e-07
  3.9149504e-04   1.4852404e-09
 -2.7120754e-04   4.2928434e-08
  4.9898639e-02   1.0466256e-08
 -2.0110797e-06   4.2420959e-07
  1.6061086e-06   4.4581483e-08
  7.8553485e-06   4.7556558e-08
  7.8405646e-06   1.4674328e-06
 -2.3132290e-05   3.1932173e-06
 -9.8897013e-05   2.7364466e-08
 -5.1708830e-06   3.1145389e-06
  3.4533219e-05   7.4264204e-07
 -2.7297929e-06   9.5425253e-07
 -3.0136858e-05   1.3121686e-07
  8.3536133e-06   1.8951316e-07
 -1.9551456e-04   7.6973060e-07
 -1.0348743e-05   8.0660902e-07
  1.1310356e-05   1.7765539e-07
  3.2533612e-04   1.0145800e-07
  8.0810141e-06   3.9978727e-07
 -5.3664285e-06   9.2137512e-08
  3.0428097e-05   8.7468202e-09
 -3.0892064e-05   3.5711923e-07
 -8.3787199e-06   1.1040115e-06
 -2.2309547e-05   8.8221486e-07
 -5.4460679e-06   4.0618925e-08
 -2.9721230e-05   1.0493113e-07
 -2.5265785e-05   1.7679861e-08
  8.5551597e-05   7.1794415e-10
  4.0094070e-05   4.0692362e-07
  1.5430645e-05   6.3239078e-08
  8.8723951e-05   1.9106848e-08
 -3.2931835e-05   1.2087991e-08
 -2.1808937e-06   4.4436010e-07
 -8.6111368e-06   1.3281343e-07
 -2.1128319e-05   1.3014653e-08
 -7.9143319e-06   6.1143868e-07
  1.5988990e-05   4.1616850e-06
 -1.4911693e-05   6.9403973e-06
 -2.0630788e-03   8.3689615e-09
  1.0921066e-06   9.2581729e-09
 -1.1912402e-04   8.1623455e-09
 -5.9516620e-05   2.9548559e-07
 -7.3532778e-01   3.8741184e-09
 -1.2192626e-05   3.5477150e-08
 -2.6960380e-02   4.5151012e-09
  4.9579676e-06   1.4357665e-06
  6.6933062e-06   5.6471140e-07
  1.6458480e-05   6.7475992e-07
  1.4267093e-05   2.3589645e-07
 -3.1038464e-06   1.5293914e-06
  3.0980380e-05   1.5009952e-07
 -2.3352190e-05   2.0783864e-06
  1.3908045e-06   1.1871280e-07
  8.9969791e-07   2.4052534e-07
 -3.5928956e-06   7.5022041e-07
  4.7800158e-06   3.8296227e-07
  1.6635438e-05   2.7877775e-06
 -2.1461017e-06   2.1739709e-06
  7.7437857e-05   4.0971150e-07
 -4.3004341e-03   1.7316520e-07
 -1.6406299e-05   3.8701998e-07
  1.0252644e-04   1.7010927e-07
  2.7844169e-05   1.0731580e-07
  1.1624070e-05   3.1331601e-07
 -2.0750120e-05   6.6438525e-07
  7.9766996e-06   1.5743833e-06
 -1.5036496e-05   4.4513936e-08
 -1.0132274e-05   2.6195848e-09
 -6.0183106e-06   3.4202918e-07
 -8.7722787e-05   1.7466098e-07
 -8.6376049e-06   1.5987204e-07
  8.1184608e-06   7.6470764e-07
  8.7691642e-06   2.2284098e-06
 -8.7825072e-07   2.6800706e-06
 -5.3509405e-07   1.8080905e-07
  1.5764101e-05   2.6291852e-07
  4.7216434e-07   6.9800114e-07
 -2.5873703e-06   1.8231260e-06
  1.7939828e-05   3.6994365e-07
  8.4194335e-06   9.6190774e-07
 -1.7269829e-01   2.7773266e-09
  8.8297566e-05   6.7786758e-09
 -1.2521435e-03   2.6920930e-09
  6.5973603e-05   9.2851053e-08
 -7.2861679e-02   3.5449710e-09
 -5.7038028e-06   2.4441629e-08
  1.4733825e-02   2.7245175e-08
 -5.6845437e-07   1.2538522e-06
  9.4455327e-06   4.4878161e-07
  2.0242785e-06   3.5757728e-07
  2.2103995e-06   5.0029780e-07
  6.7414665e-05   7.8525864e-07
  2.7619692e-04   4.2440371e-09
  9.1786360e-06   2.4952928e-07
  1.6345835e-05   1.7413501e-07
 -1.7816610e-05   2.2086427e-07
  9.7284334e-05   5.9771729e-08
  6.4968831e-06   1.8837528e-07
  1.7020186e-05   1.9568993e-06
 -7.6202986e-07   5.2424087e-07
  1.6915161e-05   1.2461890e-06
  1.7274891e-05   7.7462687e-08
 -2.5571528e-06   5.2771304e-07
  9.6172062e-06   1.4729274e-07
  6.8141812e-06   3.2404847e-07
  1.7948300e-05   1.3170744e-07
 -6.4678425e-06   3.5876755e-07
 -2.7087938e-06   2.0032703e-06
  2.1764733e-07   7.2679271e-08
 -9.2616192e-06   5.1322207e-08
 -3.9857900e-05   3.5299024e-07
 -1.7887498e-05   2.7824402e-07
  1.3919338e-05   2.5680222e-07
  1.3064429e-06   1.9695126e-08
 -2.3729365e-06   2.0768794e-06
  1.8364086e-05   6.2091135e-07
 -1.0726125e-05   5.7156289e-08
  2.6180740e-05   2.3972232e-08
 -4.1477237e-05   1.3729800e-07
  2.1092288e-05   4.8005330e-07
  2.0006555e-06   1.7820749e-06
  1.1666963e-05   2.3977434e-06
 -1.0446721e-01   4.2076893e-09
  1.6268725e-02   4.9345150e-08
 -3.9172631e-02   1.0945453e-08
  1.2785656e-05   1.6036375e-07
 -9.7714183e-05   7.4646733e-10
 -1.4762569e-03   4.0915221e-08
  2.4788752e-02   8.6096845e-09
 -1.3575761e-04   2.8851002e-07
  1.1148377e-04   1.3654241e-07
 -2.9562343e-05   1.1147478e-07
  2.1467373e-05   3.8306919e-07
 -1.0943615e-05   5.2539764e-07
 -7.5692706e-06   9.8211058e-07
 -1.1850046e-05   8.0647197e-07
  5.2773186e-07   7.2686269e-08
 -2.0862861e-05   6.9179720e-08
  5.9983631e-05   2.1683347e-07
 -5.8310479e-06   2.2163484e-09
 -1.0990781e-05   5.2399889e-07
 -4.9045175e-06   3.0541744e-07
 -4.0692736e-05   1.4993511e-06
 -4.8364749e-05   6.8004575e-09
  1.3835381e-05   7.1323932e-08
 -2.4263825e-05   6.5790701e-08
 -3.9426941e-05   1.1121069e-08
 -2.5643430e-05   2.7787596e-07
  7.3047732e-07   8.1081379e-07
 -6.2342799e-05   8.3649844e-08
  1.5958873e-05   1.5642546e-07
 -8.1881453e-06   1.5828672e-08
 -2.3848988e-05   4.0929214e-07
  9.6880030e-06   1.5562385e-07
  1.2905033e-05   5.3794214e-08
  3.8313638e-06   2.2433038e-07
 -1.0952451e-06   3.9619238e-07
  2.5412541e-05   4.8403143e-07
 -1.5111206e-05   1.1959534e-06
 -4.5204242e-06   3.0361701e-08
 -4.7478238e-07   6.1496058e-07
 -7.1938421e-06   7.6596716e-06
  3.3418546e-06   1.4476167e-06
  1.8624556e-05   3.3640877e-06
  6.3587207e-01   1.1745858e-08
  6.8720281e-01   7.6804190e-09
 -3.1860094e-03   7.1735697e-09
  2.2449703e-05   3.8651856e-07
 -1.4168777e-01   1.7738785e-09
 -3.1744359e-05   8.7140135e-09
  5.1731217e-01   1.4315437e-08
 -7.7454220e-05   1.9939748e-07
  2.3450607e-06   2.2063952e-07
 -8.0905380e-03   1.3985333e-07
 -9.9294184e-06   7.4126291e-07
  1.5617337e-04   2.1434802e-08
 -7.2231765e-06   8.5413700e-07
 -8.1952749e-06   5.1580753e-07
  2.9453433e-06   1.8909836e-07
  1.3749528e-05   2.4285350e-07
 -1.6818719e-06   7.8074493e-08
 -5.5189372e-07   3.1855643e-07
  2.4293781e-06   8.3127873e-07
 -2.7436219e-05   1.7321801e-06
 -1.9977037e-04   2.0383593e-08
  1.1755008e-02   4.6981427e-08
  4.5909956e-06   3.4414282e-07
  2.5783886e-05   5.4769725e-08
  4.0116414e-05   1.2066756e-07
  4.7003405e-06   5.8592185e-08
  1.2818804e-05   9.0091405e-08
 -1.6095870e-05   6.2278798e-07
  2.4733887e-04   3.0259508e-07
 -2.0719628e-05   3.6169428e-08
  6.4037533e-07   3.7193686e-08
  1.9728548e-04   5.6871698e-07
  5.0463409e-06   1.2553562e-07
  9.6741869e-06   3.8846400e-07
  5.2949190e-07   1.4612897e-06
  3.6869092e-06   1.4882203e-06
  4.1212538e-06   8.9321912e-07
 -1.9091161e-05   2.1453370e-06
  8.8656207e-06   9.3921642e-07
  1.3486183e-05   2.6656775e-07
 -3.0151671e-07   1.1081128e-06
 -4.8495540e-06   1.5794216e-06
  1.7797678e+00   1.1596851e-08
 -1.7307228e+00   1.0855549e-09
 -1.3275899e+00   1.1798466e-08
  4.3395326e-02   4.2990131e-09
 -1.4908564e-01   3.9690812e-10
 -1.0165626e+00   1.8089418e-08
 -1.3277255e+00   1.1787033e-08
  6.9301188e-01   1.3280796e-08
 -7.6283717e-01   5.8687210e-08
  5.7310914e-04   2.0115911e-08
 -5.3211497e-03   2.9591959e-08
  6.5313421e-02   1.6583407e-06
  2.5114781e-01   3.7223603e-07
  3.0553409e-01   8.7241074e-07
  6.8120301e-01   1.9883796e-08
 -4.1054094e-01   1.1934181e-07
 -2.0744258e-01   2.7084932e-09
  4.1836739e-01   5.5045568e-09
  4.2108127e-01   1.7034490e-07
  2.7876416e-01   1.9253210e-07
  4.2696610e-01   8.8652342e-08
  1.2749279e+00   3.1005523e-08
 -8.9280653e-01   1.1485994e-08
  7.7514178e-01   1.5663685e-08
 -2.6582441e-01   1.1164626e-08
 -2.0940635e-02   2.0719757e-08
  6.5834033e-01   2.6664895e-07
  5.8439577e-01   6.5338774e-08
  1.0099115e+00   2.5669252e-08
 -3.4457672e-01   6.6354694e-08
  2.7443698e-01   1.5607272e-08
 -9.5677114e-01   2.4524663e-08
  6.6414583e-03   1.0049389e-08
  1.0697329e+00   4.9627442e-08
  4.7972926e-01   2.3570345e-07
  2.3953824e-01   4.8690845e-07
  2.2281332e-05   1.3059501e-06
 -8.4815056e-06   8.4271129e-08
  1.2447224e-04   1.7809167e-07
 -4.2564766e-06   1.6686282e-07
 -1.4574016e-05   8.3615481e-07
  3.3730725e-05   2.1412393e-07
  3.3271313e-02   5.6979299e-10
  2.8403090e-06   7.0615933e-08
 -1.8728880e-04   2.1278790e-08
 -2.4545652e-05   2.6415759e-07
 -7.6916856e-01   4.2657269e-09
 -9.1329784e-06   1.9955277e-08
 -2.1136883e-03   1.1653388e-08
  2.2150020e-05   1.4906366e-06
  1.8921559e-05   5.1908938e-07
 -1.4330636e-05   1.3372884e-06
  1.3628053e-06   3.4593231e-07
 -4.3977311e-06   2.4755019e-07
  1.0155680e-05   1.2447599e-06
  1.6381622e-05   3.6174301e-06
 -2.8977065e-05   3.8786834e-07
  5.6597582e-06   2.2573188e-06
  1.8332747e-05   2.8172695e-07
  1.3509602e-05   1.0684198e-06
  8.6293721e-06   3.9910489e-08
  6.8730255e-06   5.0913684e-07
 -5.7094803e-06   3.8041139e-07
 -2.5569249e-04   7.9185406e-07
 -1.4053946e-05   1.8815786e-06
 -2.4270503e-05   4.2624919e-08
 -1.6222515e-06   3.8192766e-07
 -1.3353706e-05   6.3390388e-08
 -2.3712453e-06   3.1407110e-06
  3.8065747e-07   1.4686043e-07
  5.5262626e-05   8.0366249e-08
 -2.4873059e-06   8.6019463e-07
  1.0532452e-05   4.4997329e-08
 -3.5023249e-06   7.2225458e-07
 -1.5361324e-05   1.7920868e-07
 -3.6093050e-05   3.2766948e-07
  3.6783651e-06   1.2866339e-07
  1.2772777e-05   4.2838116e-07
 -6.5717240e-06   2.0388493e-06
 -2.2281777e-06   1.3978843e-06
  1.2286717e-05   1.2451795e-06
  2.4020669e-06   1.0033165e-07
  7.0830896e-07   3.2825398e-07
  5.0905983e-05   4.4959552e-07
  1.4450440e-02   1.4278393e-08
 -3.9942388e-04   9.4825037e-09
  3.2590548e-04   3.5685155e-09
 -6.3866578e-06   5.9193763e-07
  2.4590030e-04   6.6458745e-09
  4.1758398e-05   3.1065305e-08
 -5.8531221e-03   2.1111317e-08
 -9.6928879e-06   8.2295827e-07
 -7.2208395e-06   1.5450975e-07
 -1.9555296e-07   3.1166792e-07
 -2.2828784e-05   2.4822040e-07
 -4.3169170e-05   3.7721570e-08
 -1.4538183e-05   7.5392080e-07
 -3.3922204e-06   9.0937760e-08
 -3.6055704e-07   1.6938827e-07
  3.1307434e-05   5.0484481e-08
 -7.3474548e-06   4.0045779e-07
 -2.2121496e-05   5.3977661e-08
 -3.4627101e-05   7.9518010e-08
 -8.5366000e-06   1.0998340e-06
 -7.1160734e-06   1.1512321e-06
 -1.6263728e-05   4.1851877e-07
 -1.2123641e-05   9.3258637e-07
  2.6361991e-04   2.6805287e-07
  3.8000132e-06   1.0142390e-07
  3.0999036e-07   1.0358876e-06
  1.4154568e-07   4.1305725e-07
 -7.4937298e-06   1.3441147e-06
  4.9378705e-06   5.7204005e-07
  1.1313473e-05   4.5313391e-07
  7.7276773e-06   9.1546809e-07
 -2.9921007e-06   2.8790595e-07
 -3.4487907e-06   4.7007450e-07
  6.3099345e-05   1.7869026e-07
  3.1615848e-05   2.2776648e-07
 -2.3989189e-05   2.0642833e-06
 -7.5641888e-06   1.8674533e-06
 -2.2236914e-07   1.7281702e-06
 -8.1097569e-06   2.0590351e-06
 -9.0792200e-06   7.1805903e-07
  1.9068584e-05   3.2877603e-07
  4.8520607e-05   2.9037192e-06
  5.9502363e-01   8.7631884e-09
  6.6027635e-05   1.8306574e-08
  6.3809022e-02   7.4367015e-09
  2.4072705e-02   3.6600976e-08
  6.3379645e-02   8.2668544e-10
 -1.6527329e-04   5.9324061e-09
  7.3765665e-02   2.2803337e-09
 -6.5729014e-06   2.6408023e-07
  1.2554072e-05   4.0419785e-08
 -1.1981231e-01   3.8155449e-08
 -1.6243468e-05   2.1110590e-07
 -8.3414252e-06   6.3838587e-07
  3.1925983e-06   7.7002915e-07
 -2.0654466e-06   1.9696387e-07
  1.3572545e-04   1.2107146e-06
  1.9017525e-05   1.6606535e-06
 -1.7032315e-05   9.2796002e-09
  2.9013296e-05   3.3984193e-07
  1.0230299e-05   2.4490113e-08
  1.9127331e-06   7.8384284e-07
 -4.3568898e-06   2.0578264e-09
  2.3636764e-01   4.2752539e-08
  2.1714736e-04   2.0292909e-07
 -8.4446736e-05   1.2497878e-09
 -4.8194147e-07   5.8268625e-08
  1.5902157e-05   1.0058285e-07
  1.1447695e-05   2.9782802e-08
 -1.2796671e-06   1.1320273e-06
  2.7100660e-02   3.0260446e-07
 -2.0506175e-05   4.5559796e-07
 -1.5032395e-05   9.3068721e-08
  3.5217890e-05   5.8250251e-08
  4.9863651e-05   9.6027357e-08
  1.4209279e-05   3.1157907e-07
  3.2528860e-05   9.8488806e-07
 -3.5174032e-06   6.1062002e-07
  2.1153028e-05   9.0530513e-08
 -5.3016797e-06   3.0527200e-08
 -1.1362607e-05   1.9809409e-06
  4.7563015e-05   1.0995499e-07
  3.2156859e-05   1.8702016e-06
 -1.0250757e-05   2.1529064e-07
 -5.3394611e-05   1.3627435e-08
 -3.4924042e-06   3.3006590e-06
 -3.6774669e-05   5.7786533e-06
 -5.7751129e-07   4.1509265e-06
 -3.1657990e-05   6.5230671e-07
 -1.3976260e-05   1.3075756e-07
  1.3146146e-05   1.2288480e-06
  4.3954938e-06   1.6522849e-07
  1.8895236e-05   2.0852742e-07
 -3.1041473e-05   1.5785560e-08
 -3.1392898e-05   5.2537433e-07
 -1.4765076e-05   6.0383849e-07
  5.6854860e-06   9.1649945e-08
 -1.0487748e-05   5.8761538e-07
  3.3157736e-05   1.9300580e-06
  5.8580554e-07   3.0855401e-06
 -2.0126290e-05   7.0793527e-07
  1.5993569e-06   7.1708982e-08
  8.5574920e-06   1.9008650e-06
 -9.8385203e-07   2.2578470e-06
  4.3041418e-06   1.5897250e-06
  4.4484608e-05   1.6265404e-06
  3.6332081e-06   6.1326017e-07
 -2.5847701e-05   1.0893011e-06
  1.2410061e-05   1.5612280e-06
 -2.0896379e-05   7.2769218e-08
  2.2308863e-05   2.1499316e-07
  2.2996579e-05   1.0254942e-07
 -7.1840705e-06   2.0129728e-07
  1.3254009e-05   1.8609860e-07
  5.7797394e-07   6.0461089e-06
  3.3091805e-05   1.4089517e-06
 -6.9932594e-06   1.2089527e-07
  1.1386968e-06   2.9727294e-06
 -2.0935398e-05   1.5115455e-06
  2.4407445e-05   4.8204884e-06
 -6.1619321e-05   2.6595524e-08
  1.8483353e-05   1.4920290e-06
 -5.0429098e-05   1.1810678e-07
  8.4711734e-04   3.7440948e-09
 -1.5216915e-05   1.9435997e-06
 -1.6943022e-05   4.4246767e-06
  1.7674171e-05   1.1835113e-08
 -5.2499163e-01   1.0281765e-08
  3.5266912e-05   2.0746587e-08
 -1.3777184e-05   2.7830475e-07
 -3.8836470e-01   1.3372954e-09
  2.6567737e-05   5.0724417e-08
 -2.0459758e-03   3.9227718e-08
 -1.3944352e-05   2.1980641e-07
 -4.0803369e-04   2.8119867e-08
  3.3562352e-05   2.8487199e-07
  1.2409514e-04   2.5620292e-07
  6.3487760e-06   3.2950160e-07
 -9.1401250e-07   1.3982177e-06
 -1.1847873e-06   2.1005962e-06
 -5.5713481e-06   7.6960468e-08
  2.8654927e-06   5.0595412e-07
  5.1400031e-05   1.4391691e-07
  2.5896163e-05   6.3846969e-08
 -3.0921110e-06   1.8477772e-06
 -6.8905733e-06   7.4704553e-07
  6.0040806e-05   1.0619893e-07
 -1.7937031e-04   2.9952332e-07
  2.3441571e-05   6.9457849e-07
  1.3641962e-04   2.4061151e-08
 -1.1383959e-05   1.4239662e-07
 -8.2802626e-06   8.1727347e-07
 -4.3377582e-05   1.3490369e-06
  3.0254674e-07   1.7955750e-06
 -3.5915308e-04   2.9160223e-08
  3.5333396e-05   2.8564455e-07
  5.3368780e-07   4.9019241e-07
 -7.2191688e-06   1.5099916e-07
 -9.0617032e-06   1.1860234e-07
 -1.5962563e-05   7.0915732e-08
 -4.0369473e-06   5.9055714e-07
 -7.1597583e-06   3.8362418e-06
 -1.0059158e-06   2.5538222e-06
  1.2325296e-05   6.3974130e-07
 -1.3466820e-04   5.3657152e-07
  1.0252954e-06   1.4313704e-07
  7.4082673e-06   6.3888990e-07
 -8.0478014e-05   1.8698303e-08
 -2.0196967e+00   1.3587640e-08
 -3.7491044e-01   1.2965460e-08
 -2.6008544e+00   2.9704175e-08
  7.3385932e-06   5.5492357e-08
  1.9635264e+00   2.7739966e-09
 -2.9993021e-01   1.1639361e-07
 -1.6455189e+00   8.5973157e-09
 -3.0032956e-05   6.7255922e-07
 -7.1844406e-06   9.7133147e-07
  2.8498641e-01   3.5683513e-07
 -2.8821942e-06   5.5901387e-07
 -9.5034056e-06   2.0257146e-07
 -9.9326217e-06   1.1092053e-06
  1.6201537e-05   6.7013383e-07
 -4.1140838e-06   3.6781233e-07
 -2.7577430e-06   8.8033630e-08
  1.0453159e-07   1.7644781e-07
  2.2548281e-06   1.3723270e-07
 -4.1949038e-06   4.2526673e-07
  7.1183954e-06   2.1405592e-07
  2.7072258e-05   2.2262871e-06
 -4.2445134e-02   1.7744345e-07
 -2.5046854e-03   2.7301482e-07
 -1.1527582e-05   5.8698487e-07
  5.0058028e-05   6.3732813e-07
  1.0755453e-05   2.6017975e-07
 -8.2588531e-06   3.1012260e-06
 -9.4007646e-06   4.4962488e-07
 -1.7402940e-04   1.5444359e-08
 -2.3093936e-04   2.7405471e-07
 -1.2166026e-02   3.2497078e-07
 -2.2608521e-05   8.4214058e-08
 -3.5432754e-07   7.8745177e-07
 -3.5040855e-05   2.1407752e-08
  3.0940716e-06   1.9720630e-07
 -5.5719170e-07   3.7373836e-06
  9.0241065e-06   1.0249873e-06
  3.7878507e-08   1.4298039e-06
  9.9768167e-06   4.5508420e-07
  2.6698255e-05   3.9322407e-07
  1.8340788e-05   3.7531347e-08
 -2.6245484e-06   1.1027219e-06
 -2.3250434e-05   7.9420817e-09
 -4.8053840e-05   1.2476745e-07
  1.2431142e-04   1.6759845e-08
  1.0484613e-05   1.3103008e-06
  1.9655924e-04   1.1371624e-08
  2.3594030e-06   5.1322392e-08
  8.8668814e-05   9.1066275e-09
  1.0500127e-05   1.2670342e-06
 -1.0216086e-05   2.0719567e-06
 -1.4220829e-05   2.3646770e-07
  9.2139853e-05   2.8578031e-08
 -1.3292171e-05   7.6094926e-07
 -4.2015481e-06   7.7923522e-07
 -1.3556974e-05   6.8277325e-07
  1.1798395e-05   1.4477990e-06
 -8.4086842e-06   3.7204981e-07
 -2.1073782e-05   5.6303861e-07
 -1.1575321e-06   5.3104054e-07
 -3.4557623e-05   2.8246640e-07
 -8.3287176e-07   8.5086515e-07
 -7.5493240e-06   2.4039230e-07
 -6.6413304e-05   1.3671455e-07
  2.1380190e-05   1.3913968e-06
  5.7858119e-06   2.8283822e-07
 -4.1345120e-06   1.3318627e-06
 -1.8486243e-06   1.0937866e-06
 -1.7111161e-05   4.3263779e-09
  2.8983448e-05   1.0002729e-07
 -6.0827792e-06   2.2989893e-06
 -9.9420813e-06   2.9573437e-07
 -8.4572980e-07   5.5503551e-07
 -1.8254244e-05   6.2062401e-07
 -1.0916399e-05   1.7417153e-07
 -2.5430380e-05   1.8023409e-06
  1.5628637e-05   1.1528772e-08
  6.2181552e-06   4.1887392e-06
 -2.1990857e-06   4.8894475e-07
 -1.0696591e-05   2.3043121e-07
 -1.2843240e-05   1.1966397e-06
 -2.0495515e-06   6.4473005e-07
  2.4277902e-05   2.0211924e-06
  2.3236920e-05   1.3066635e-06
 -2.4593717e-01   1.3622691e-08
  5.6958602e-06   3.1250789e-09
 -1.4936260e-03   1.7936323e-08
 -2.6609345e-05   4.1093472e-07
  6.1352635e-05   5.3352349e-09
 -1.5576457e-04   8.2736584e-08
  1.4481804e-02   9.7352171e-09
  4.7014400e-06   2.1058959e-06
 -1.0357902e-05   1.5765369e-07
 -7.8383899e-05   1.5107875e-07
 -6.8202633e-07   4.7378376e-07
 -3.9109186e-06   1.2284787e-06
 -1.6880902e-05   1.4185055e-06
 -2.0113186e-04   6.3693889e-08
 -1.4854131e-05   2.0219820e-06
  1.0087791e-05   4.1906919e-08
  4.7322563e-05   1.9487571e-07
  4.6242389e-05   1.5135521e-07
 -3.7430113e-05   2.9686996e-06
  2.0401818e-05   2.2706051e-06
 -4.1574160e-05   2.8248264e-09
  2.9337159e-04   4.0470803e-07
  1.3614505e-06   5.5777743e-08
  1.4936267e-05   8.3727353e-10
  1.5528678e-05   5.2429539e-07
  2.4259857e-06   3.0936349e-07
  2.7777912e-06   2.1786123e-07
  1.2883673e-06   8.7093247e-07
 -1.1241056e-06   9.6513260e-09
  1.6636595e-05   1.2260112e-07
 -5.9432632e-06   6.2879224e-07
  1.0692749e-05   8.5337625e-08
  5.4257958e-05   1.3625953e-07
  4.6966034e-06   6.4441275e-07
  5.4588832e-06   1.6554881e-07
  2.8034408e-05   3.2349752e-07
 -3.9136932e-05   4.7001978e-07
  1.0647158e-06   6.3603704e-07
  4.0534751e-06   7.9276890e-07
  1.6539452e-05   4.5230458e-06
 -3.5176130e-05   6.7288778e-07
 -4.3014385e-05   2.8589602e-07
  2.7329645e+00   1.8982877e-08
 -8.1806797e-01   9.6413570e-09
 -1.0072653e+00   1.6296104e-09
 -5.8564901e-01   2.4933344e-09
 -4.0970159e-01   1.4066463e-10
 -7.0870930e-01   2.5842999e-09
 -1.7421422e+00   4.1667731e-09
  5.4500408e-05   9.3134908e-08
  1.5679958e-01   6.4475444e-08
  3.4543741e-01   3.2867831e-08
  4.6143445e-01   6.2710946e-08
 -2.1286123e-01   4.0171244e-07
  6.5887621e-06   5.8791270e-09
 -6.1428480e-05   3.2689110e-07
 -2.0235874e-04   3.9669138e-07
  1.9311388e-01   2.9060660e-08
  4.0186912e-01   4.1593381e-08
  7.1047626e-02   5.1531675e-08
 -9.7457975e-02   2.0653864e-07
 -8.1211128e-06   1.1198771e-06
 -2.1826732e-05   1.5137839e-08
  1.0946890e+00   1.0055421e-09
  1.6771989e+00   8.8046948e-09
  9.9151805e-02   1.0906800e-08
  3.3455199e-01   6.0448286e-09
  5.2074785e-03   1.7701931e-08
 -5.2965468e-01   3.3851855e-08
 -8.9367134e-03   1.9831209e-07
  1.6411368e+00   6.8623478e-08
  1.0907910e+00   2.1717950e-08
 -2.0148997e-01   2.6881475e-08
  3.0702569e-03   1.7462865e-08
 -1.1446901e-01   1.8932180e-08
 -1.4459664e-01   5.9974781e-08
 -1.5134609e-01   1.5392331e-07
 -3.0977688e-05   1.0367303e-07
 -3.0687877e-06   3.2256176e-07
  4.2900642e-06   3.9749762e-07
  1.5192698e-05   9.5107275e-08
  1.6030917e-05   6.6908370e-07
 -1.4035028e-04   1.0841290e-09
  1.7635653e-05   9.7212228e-07
 -3.0437691e-02   1.4079052e-08
  3.1138665e-05   5.2291583e-08
 -5.5182260e-04   2.1367113e-08
 -5.8787182e-06   2.4908744e-07
  8.7966651e-02   1.0987072e-08
 -1.9917499e-05   1.0495663e-07
  2.0690492e-04   7.6069560e-09
 -2.8969072e-05   7.3912425e-08
 -2.1819837e-05   7.1369065e-08
 -1.7991992e-05   3.0341837e-07
 -3.7651450e-06   3.1299697e-07
  2.0878659e-05   2.6754738e-06
  1.2277436e-05   2.4731492e-06
 -2.6758009e-05   1.4040015e-06
  2.4431081e-06   4.8793220e-07
 -3.0556923e-06   4.4817236e-07
  3.8883769e-05   8.9051852e-08
  1.8152712e-05   2.0631487e-07
  2.5108940e-05   3.2211500e-07
 -2.0892860e-06   1.9316802e-07
  9.8748533e-06   1.6702086e-06
 -2.2122242e-05   1.4644260e-07
 -2.0403097e-05   1.9944461e-07
  2.5742402e-06   4.2179114e-09
  2.6859821e-05   9.1606601e-08
  5.1248780e-06   6.4958641e-07
  6.9402172e-06   1.4811629e-07
 -7.8430176e-06   1.2392863e-06
 -8.2679126e-06   3.1155048e-07
  5.2519244e-06   5.5605895e-08
  9.5054629e-06   5.8633833e-07
 -5.8677933e-06   2.9204992e-08
 -8.6286534e-05   4.2167603e-08
  1.0454805e-05   6.2312324e-08
 -3.0322494e-06   8.6429998e-07
  5.5876089e-06   1.5331588e-06
 -1.9562896e-05   3.3353777e-07
 -3.1229024e-06   7.1473994e-07
  3.2186734e-05   2.2722299e-06
  4.8678103e-05   1.7528768e-07
 -3.9486211e-05   1.8761997e-06
  3.0220838e-06   8.5758160e-07
 -1.6809306e-01   1.4839157e-08
  7.7979734e-05   2.2881078e-08
 -3.7672317e-03   8.2181222e-09
 -8.0394675e-06   4.0598329e-07
  1.2099590e-05   4.8879262e-10
 -8.6235799e-05   7.3201929e-09
  2.5744753e-02   1.5105579e-08
 -3.5519263e-06   3.4808707e-07
  5.7969446e-05   5.2966141e-07
  2.3502839e-06   1.5502160e-07
 -2.0840166e-06   1.6410780e-07
  5.3524368e-06   1.0655737e-06
  6.8895715e-06   1.8171241e-07
 -1.0985371e-05   4.4112649e-06
 -8.1334855e-07   6.0009182e-07
  2.5046993e-06   1.3145807e-06
 -5.4706812e-05   7.9814818e-08
 -2.5420016e-04   2.8200751e-09
 -1.6204589e-05   5.2017134e-07
  1.1011781e-05   5.2363731e-07
 -7.4594689e-05   1.1288805e-07
  2.7735854e-04   7.1093702e-08
 -9.4170115e-05   8.3448484e-08
  1.5245118e-05   1.7428844e-08
 -7.8714837e-04   2.9584953e-07
 -2.6584712e-05   1.1981663e-07
 -3.0162741e-05   1.0548374e-06
  5.9875538e-06   2.5324130e-07
  3.1559721e-05   1.6429995e-07
 -8.8356173e-06   3.7147811e-09
  6.0177754e-06   6.0381829e-08
  2.0749314e-06   7.3564685e-08
  1.7314762e-05   2.5991713e-07
  3.4088574e-05   5.3356695e-07
 -3.8000928e-07   4.5599612e-07
  1.3133877e-05   2.3809866e-06
  3.2029620e-05   1.4211740e-07
  4.7566868e-05   1.7497578e-07
  1.0773369e-05   3.6588734e-08
 -2.1480309e-06   6.1993099e-08
 -1.9261970e-05   4.1603087e-07
  1.8724400e-06   1.5797777e-06
 -3.6574449e-02   1.2168744e-08
  1.8486688e-05   7.9623979e-09
 -7.5494895e-06   2.7718652e-08
 -7.2575989e-05   2.2987410e-07
  6.4190644e-01   7.4827859e-09
 -6.5360463e-04   5.6371896e-08
  6.7810774e-02   7.9861238e-09
  5.4655015e-07   5.3294457e-07
  1.5061043e-05   1.0378424e-07
 -5.4271013e-06   1.4821002e-07
 -8.8624660e-08   5.5239269e-07
  1.9539033e-05   4.0694508e-06
  3.8154336e-05   1.2545282e-08
  1.0218954e-05   2.7145708e-07
 -2.5605282e-06   1.9155113e-06
  1.8872299e-06   3.2411695e-06
  2.2964723e-05   3.1398248e-08
 -1.2404566e-06   6.5234822e-08
 -2.2668284e-05   2.7791526e-07
 -1.2249954e-05   2.5450008e-06
  3.3160642e-05   1.0788463e-06
 -4.7242209e-02   2.7415535e-07
 -1.2934436e-05   1.5110707e-08
  3.2778833e-05   4.3102094e-08
 -1.0336300e-04   3.7165930e-07
  8.6744012e-06   1.1130007e-07
 -1.1369522e-04   4.2601648e-08
 -2.1015492e-06   1.9751155e-06
 -2.3713756e-05   5.3354745e-07
  2.5135123e-05   1.6054182e-08
 -2.2440786e-06   1.8052519e-08
  5.2872715e-06   6.2243259e-08
 -1.5068743e-04   1.4201868e-07
 -6.0011257e-06   9.2583164e-08
 -3.1200707e-05   5.7764925e-07
  6.4226706e-06   4.7783087e-06
  1.6922710e-05   3.8107007e-06
  1.4349583e-06   4.0433562e-07
  4.4214630e-06   1.9311175e-07
  9.2319297e-06   8.5734598e-07
 -7.7643435e-06   5.5256024e-08
 -1.1495668e-05   1.7378573e-08
 -9.5016009e-01   5.0144435e-09
  9.2124037e-06   5.3097025e-08
  4.9496895e-05   5.4433784e-08
 -9.8819091e-06   6.1788523e-07
 -2.5050271e-01   5.6354754e-11
  2.1306116e-05   8.5707192e-08
 -1.1312161e-02   6.3818124e-09
 -3.6579484e-06   3.7418904e-06
  3.5752520e-05   1.0183794e-06
 -1.8009861e-05   6.9484497e-07
  2.6110160e-06   6.5179603e-07
 -1.0005688e-05   1.1181850e-06
 -2.3754730e-05   3.9444326e-06