180
lattice="22.198932648 0.0 0.0 -0.000460784 21.36066627 0.0 0.0 0.0 14.0" energy=31.07286829 virial="170.06997612587114 -0.3795421448836808 0.8565387793706821 -0.3795421448836808 168.01725806913726 -1.160545407865395 0.8565387793706821 -1.160545407865395 109.31982232091681" properties=species:S:1:pos:R:3:force:R:3
Ne 0.08424 1.33228 6.16447 -0.184636 0.309821 -0.565328 
Ne 21.01978 3.55531 6.06338 -0.141582 -0.024609 -0.555737 
Ne 19.68335 5.66048 6.05628 0.022197 -0.090834 -0.707581 
Ne 18.40256 7.89386 5.8864 0.300206 -0.275106 -0.669903 
Ne 17.33653 9.90736 6.02703 -0.366194 0.332468 -0.836149 
Ne 16.1097 12.13207 6.08982 -0.268124 -0.071212 -0.941537 
Ne 14.83294 14.3407 5.99641 0.24821 -0.261504 -0.643013 
Ne 13.61656 16.37754 6.06525 0.057499 0.111244 -0.800092 
Ne 12.42484 18.39898 6.00663 -0.063793 0.279686 -0.865812 
Ne 11.09886 20.53867 6.02134 -0.012498 -0.051298 -0.805567 
Ne 9.78051 1.23743 6.01162 0.188031 0.419754 -0.692225 
Ne 2.39806 1.2851 6.04485 -0.056456 0.338078 -0.96195 
Ne 1.18046 3.56001 6.02897 0.148705 -0.14667 -0.621563 
Ne 0.08327 5.65175 6.03591 -0.115961 0.111706 -0.638225 
Ne 20.97219 7.68041 5.97806 0.181104 0.233957 -0.710774 
Ne 19.86962 9.83307 6.14558 -0.300431 -0.002336 -0.910524 
Ne 18.53533 12.04318 5.96212 0.021345 0.117305 -0.846381 
Ne 17.36431 14.21501 6.02374 -0.300441 0.107709 -0.738705 
Ne 16.06752 16.44149 6.00784 -0.067678 0.02741 -0.773055 
Ne 14.8558 18.63858 5.90739 -0.081292 -0.281055 -0.528612 
Ne 13.63844 20.73317 5.96297 -0.071872 -0.106947 -0.587227 
Ne 12.35208 1.32574 5.96722 -0.227938 0.301143 -0.489106 
Ne 4.84662 1.35266 6.02477 0.038671 0.114217 -0.645161 
Ne 3.58299 3.54376 6.04697 0.225421 -0.137161 -0.694245 
Ne 2.54694 5.70753 6.07741 -0.152833 0.094384 -0.827018 
Ne 1.27155 7.81633 6.04361 -0.052738 0.063776 -0.60532 
Ne 22.15168 10.0045 5.95249 0.264562 -0.145647 -0.50452 
Ne 20.98953 12.16624 5.96786 -0.020887 -0.094145 -0.668545 
Ne 19.70026 14.26208 6.02611 0.084564 -0.062088 -0.664617 
Ne 18.46449 16.43055 5.99655 0.11312 -0.138861 -0.733975 
Ne 17.31414 18.52356 5.88768 -0.127283 0.169674 -0.436705 
Ne 16.0146 20.68527 5.94493 0.287803 0.107001 -0.607796 
Ne 14.75331 1.54822 6.09119 0.1659 -0.226046 -0.729203 
Ne 7.35027 1.44169 5.9736 0.057667 -0.102565 -0.697994 
Ne 6.13006 3.55187 6.0814 -0.099241 -0.098049 -0.604808 
Ne 4.96397 5.65533 6.09521 -0.084736 0.156389 -0.612291 
Ne 3.75478 7.91467 6.00971 0.027812 -0.11708 -0.638585 
Ne 2.42367 10.00753 5.99335 -0.027408 -0.070254 -0.596869 
Ne 1.25339 12.17684 6.11548 -0.016862 -0.130208 -0.913102 
Ne 22.12177 14.28048 6.06363 0.209502 0.037065 -0.744982 
Ne 20.88662 16.36374 5.96109 0.207278 -0.006393 -0.539305 
Ne 19.75006 18.4897 5.99912 -0.115029 0.063281 -0.76501 
Ne 18.53661 20.62373 6.09848 -0.155811 0.112809 -0.729795 
Ne 17.31509 1.34099 6.07939 -0.070259 0.106693 -0.84743 
Ne 8.59581 3.62798 6.1028 0.037745 -0.076931 -0.892457 
Ne 7.31109 5.68849 5.9696 0.107613 0.121306 -0.552146 
Ne 6.23194 7.90507 6.1095 -0.199658 -0.089919 -0.899227 
Ne 4.97927 10.06104 6.07804 0.149331 -0.342311 -0.862231 
Ne 3.73058 12.03911 5.96676 -0.223602 0.178195 -0.618834 
Ne 2.54085 14.17611 6.01413 -0.04815 0.035353 -0.682425 
Ne 1.28015 16.36315 6.02179 -0.199912 -0.111165 -0.817169 
Ne 22.10813 18.47781 6.03744 0.17029 -0.030329 -0.693297 
Ne 20.94729 20.65779 6.00868 0.106757 -0.157643 -0.600583 
Ne 19.92121 1.41253 6.06397 -0.242941 0.048769 -0.600017 
Ne 10.91237 3.55491 6.08755 0.206832 -0.076123 -0.697451 
Ne 9.72255 5.7998 5.97521 0.220913 -0.06654 -0.589236 
Ne 8.61345 7.95366 5.92511 -0.03024 -0.138068 -0.616624 
Ne 7.53762 10.06738 6.0106 -0.324696 0.116094 -0.593929 
Ne 6.07035 12.16078 6.02778 0.448794 -0.172472 -0.710815 
Ne 4.99108 14.21528 6.05806 -0.183333 0.145652 -0.647316 
Ne 3.70212 16.35876 6.05493 0.004499 0.085622 -0.789681 
Ne 2.40342 18.4807 5.98308 0.024172 -0.204947 -0.682834 
Ne 1.17947 20.59796 6.07073 -0.075382 -0.075063 -0.673033 
Ne 13.53109 3.6168 6.03522 -0.166964 -0.129173 -0.611113 
Ne 12.28892 5.65959 5.99785 -0.131573 0.047343 -0.74488 
Ne 11.04055 7.90753 5.88945 -0.007476 -0.167715 -0.574964 
Ne 9.8728 10.01328 6.09536 -0.160645 0.131642 -0.625698 
Ne 8.65329 12.23082 6.01635 0.081351 -0.165361 -0.620843 
Ne 7.43345 14.21994 6.00367 -0.111896 0.12678 -0.575603 
Ne 6.09472 16.37718 6.04555 0.194481 -0.149684 -0.679343 
Ne 4.99427 18.49166 5.97675 -0.207767 0.096072 -0.546018 
Ne 3.59439 20.48753 6.00007 0.244045 0.17025 -0.662702 
Ne 16.03473 3.55659 6.14739 0.030086 0.171173 -0.857666 
Ne 14.7549 5.70322 6.02129 0.103032 0.026702 -0.608351 
Ne 13.47623 7.84672 6.02534 0.069852 -0.086523 -0.618701 
Ne 12.18671 9.9785 6.01764 0.46854 -0.058791 -0.725815 
Ne 11.16693 12.03942 6.04705 -0.220054 0.366266 -0.813378 
Ne 9.96244 14.29053 6.04245 -0.0426 -0.048355 -0.663698 
Ne 8.54415 16.35296 6.01745 0.250056 -0.10468 -0.465783 
Ne 7.42812 18.43376 6.02612 -0.021219 0.176877 -0.541211 
Ne 6.14293 20.64831 6.04628 0.031676 -0.060071 -0.550564 
Ne 18.50588 3.42524 6.07746 0.135598 0.170792 -0.757858 
Ne 17.2272 5.75502 6.0087 0.031018 -0.169157 -0.441779 
Ne 16.00111 7.85556 6.00532 -0.137569 -0.007384 -0.719492 
Ne 14.65921 9.95015 6.06214 0.250381 -0.099548 -0.868791 
Ne 13.72736 12.01702 5.94331 -0.252064 0.277641 -0.635193 
Ne 12.45299 14.13648 5.9819 -0.208798 -0.00772 -0.790845 
Ne 11.22439 16.32148 6.01631 -0.158084 -0.022627 -0.682128 
Ne 9.90803 18.3567 6.07953 -0.080098 0.114776 -0.73418 
Ne 8.68946 20.55098 6.06772 -0.232443 -0.192993 -0.709772 
Ne 1.14785 0.6409 8.11291 0.137803 0.029087 0.723611 
Ne 0.06444 2.97843 8.11785 -0.154551 -0.36933 0.544503 
Ne 20.98969 5.01134 8.00214 -0.118454 0.120414 0.599219 
Ne 19.73341 7.23992 7.83583 -0.101306 -0.117059 0.777398 
Ne 18.34917 9.29759 7.93468 0.351415 0.223058 0.882592 
Ne 17.2696 11.46586 7.85932 0.089593 -0.282564 0.987784 
Ne 16.13749 13.47193 7.99436 -0.388496 0.339347 0.685647 
Ne 14.84694 15.74252 7.90787 0.034631 -0.203306 0.879595 
Ne 13.57029 17.89695 7.97871 0.136609 -0.14205 0.674433 
Ne 12.39827 19.9574 7.80271 0.142641 0.081218 0.837251 
Ne 11.07888 0.60967 7.93734 0.101851 0.092715 0.639648 
Ne 3.4905 0.68002 7.83615 0.449557 -0.146886 1.028904 
Ne 2.43993 2.84684 7.97867 0.007569 -0.07694 0.644096 
Ne 1.25216 5.0092 8.0024 0.05221 0.112956 0.652328 
Ne 0.01655 7.13222 8.0101 -0.02879 0.045784 0.581314 
Ne 20.9606 9.35229 8.09006 0.135885 -0.216574 0.702877 
Ne 19.67443 11.3768 7.80276 0.132759 0.238836 0.973529 
Ne 18.47516 13.70054 7.98974 0.169029 -0.39524 0.727571 
Ne 17.2579 15.77364 7.90075 -0.094095 -0.184766 0.764181 
Ne 15.95584 17.8502 7.99287 0.208342 0.070496 0.486528 
Ne 14.96927 20.00049 7.9186 -0.357899 -0.023987 0.64876 
Ne 13.5968 0.79331 8.06608 -0.147198 -0.141793 0.570102 
Ne 6.17938 0.80479 7.96046 -0.126515 -0.184977 0.655861 
Ne 4.90533 2.84353 8.0214 0.006357 0.008648 0.579491 
Ne 3.65624 5.0034 7.95926 0.284449 -0.125224 0.848784 
Ne 2.56242 7.12849 7.98675 -0.106367 0.129318 0.648097 
Ne 1.26308 9.21857 8.02572 -0.041122 0.115716 0.507756 
Ne 0.02964 11.41264 7.93138 -0.154834 -0.087774 0.702517 
Ne 20.94664 13.53172 7.98081 -0.093026 -0.053218 0.694561 
Ne 19.70513 15.69325 7.9695 0.155548 0.038692 0.629831 
Ne 18.44659 17.80858 7.93788 -0.072382 0.035351 0.62721 
Ne 17.36715 19.93988 8.10888 -0.186892 0.08315 0.468563 
Ne 16.06957 0.71566 7.97304 0.008277 0.077663 0.654842 
Ne 8.62599 0.57984 7.95021 -0.114628 0.014686 0.726838 
Ne 7.55105 2.80894 7.90131 -0.61768 0.016954 0.883377 
Ne 6.25259 4.97455 8.05908 -0.136759 -0.016165 0.618458 
Ne 4.97919 7.16537 8.02019 -0.005459 -0.059783 0.611989 
Ne 3.74687 9.35032 7.91614 -0.078118 -0.258641 0.740393 
Ne 2.47006 11.4025 7.98951 -0.042412 -0.07086 0.657407 
Ne 1.19594 13.54308 7.95857 0.136024 0.00825 0.792926 
Ne 0.07344 15.64445 7.99494 -0.381637 -0.034033 0.6207 
Ne 20.83922 17.79017 7.96879 0.222141 -0.168712 0.695842 
Ne 19.70104 19.86655 7.92063 0.212842 0.14017 0.802515 
Ne 18.56814 0.83513 7.96277 -0.000459 -0.317599 0.72757 
Ne 9.76399 2.66879 8.05012 0.384233 0.205142 0.601094 
Ne 8.65149 5.04537 7.99862 0.072805 -0.061593 0.651947 
Ne 7.4557 7.17281 7.95083 -0.08612 -0.250982 0.639951 
Ne 6.31776 9.24215 7.95475 -0.260878 0.319207 0.76323 
Ne 4.92754 11.36363 7.95836 0.189863 -0.020757 0.851082 
Ne 3.75137 13.40007 8.0287 -0.18393 0.285667 0.555192 
Ne 2.48369 15.57808 7.88256 0.056913 0.016667 0.8543 
Ne 1.13066 17.66554 7.95593 0.179842 0.127391 0.679884 
Ne 0.04903 19.76743 8.02768 -0.331533 0.165205 0.640264 
Ne 21.01776 0.52337 8.08368 -0.151119 0.208883 0.637417 
Ne 12.1493 2.89508 7.96155 0.294905 -0.132101 0.571714 
Ne 11.08231 5.0622 7.9666 -0.241852 -0.209824 0.617841 
Ne 9.78498 7.23381 7.92286 0.20682 -0.112106 0.558941 
Ne 8.66426 9.26278 8.03827 0.054722 0.240306 0.626538 
Ne 7.47841 11.47157 8.00295 -0.183988 -0.108241 0.540976 
Ne 6.12466 13.43424 7.9839 0.223368 0.302934 0.734829 
Ne 4.89564 15.67776 7.96955 0.064869 -0.217347 0.776019 
Ne 3.63083 17.79501 8.00464 0.021981 -0.051692 0.542424 
Ne 2.34884 19.77004 7.92806 0.223361 0.232478 0.796989 
Ne 14.74079 2.88788 7.97691 -0.042086 0.10972 0.865948 
Ne 13.54033 5.06239 7.98109 -0.017352 -0.060269 0.677818 
Ne 12.13292 7.10152 7.86962 0.331494 0.291906 0.676198 
Ne 11.1116 9.40189 7.98557 -0.112334 -0.22978 0.780839 
Ne 9.82522 11.52779 8.0389 0.086937 -0.186659 0.584857 
Ne 8.66824 13.64979 7.98676 -0.025709 -0.055165 0.631916 
Ne 7.41601 15.62169 8.02435 -0.089799 0.15729 0.571292 
Ne 6.05518 17.76295 7.96258 0.211727 0.158549 0.708778 
Ne 4.81671 19.99648 8.04132 0.14622 -0.028761 0.530334 
Ne 17.26247 2.85295 7.94253 -0.050858 -0.037126 0.928678 
Ne 16.02638 5.01697 8.07121 0.086759 0.113998 0.563635 
Ne 14.82855 7.1584 7.95338 -0.189276 -0.123648 0.651058 
Ne 13.48588 9.25126 7.98338 -0.197916 -0.111647 0.698417 
Ne 12.30633 11.49163 7.91909 0.20554 -0.142825 0.766691 
Ne 11.10816 13.52383 7.9939 0.074429 0.066454 0.602486 
Ne 10.06916 15.69395 8.01064 -0.321277 0.147327 0.585466 
Ne 8.63801 17.80949 8.07093 -0.097107 -0.25421 0.570891 
Ne 7.36963 19.90087 7.99497 -0.167304 -0.04176 0.599849 
Ne 19.81125 2.80734 8.08428 0.099949 0.081737 0.568808 
Ne 18.52639 4.89525 7.96383 -0.088622 0.287989 0.657382 
Ne 17.31717 7.3309 7.96559 -0.201946 -0.627713 0.614589 
Ne 15.83416 9.27705 7.91572 0.4486 0.094134 0.731752 
Ne 14.71444 11.32549 8.01664 0.145807 0.280217 0.681677 
Ne 13.62182 13.52891 7.89117 0.242925 -0.197449 0.723452 
Ne 12.45246 15.51069 7.90251 -0.089684 0.37966 0.790337 
Ne 11.18972 17.85281 7.93162 0.023488 -0.250625 0.803596 
Ne 9.87311 19.80983 8.0401 0.059172 0.22287 0.627241 
180
lattice="22.198932648 0.0 0.0 -0.000460784 21.36066627 0.0 0.0 0.0 14.0" energy=30.7961671 virial="170.3520637811515 0.5201301904721447 0.007582555951278776 0.5201301904721447 167.19353559749013 -0.9464107130227242 0.007582555951278776 -0.9464107130227242 107.11201406240346" properties=species:S:1:pos:R:3:force:R:3
Ne 0.04705 1.35235 6.17136 0.151554 0.310781 -0.568675 
Ne 20.97127 3.55762 6.01578 -0.038054 -0.062108 -0.541846 
Ne 19.67405 5.60321 6.10294 -0.036739 0.137224 -0.73576 
Ne 18.41149 7.92061 5.89185 0.319921 -0.230972 -0.571487 
Ne 17.26603 9.97201 6.00775 -0.199601 -0.022952 -0.677258 
Ne 16.1533 12.10216 6.03441 -0.3814 -0.003555 -0.741084 
Ne 14.82708 14.29359 6.02998 0.24735 -0.070451 -0.613845 
Ne 13.64707 16.38661 6.02905 -0.063754 0.044197 -0.593245 
Ne 12.37422 18.41952 5.95993 0.025221 0.164799 -0.678397 
Ne 11.05972 20.58428 6.02334 -0.026016 0.034736 -0.788511 
Ne 9.75751 1.30975 6.00157 0.191633 0.232884 -0.655633 
Ne 2.54283 1.28757 5.96144 -0.475684 0.119985 -0.820711 
Ne 1.19172 3.52833 6.06186 -0.007476 -0.024324 -0.73368 
Ne 22.14354 5.63757 6.04955 0.28913 -0.013488 -0.609977 
Ne 20.99278 7.63804 5.91346 -0.110142 0.371964 -0.484807 
Ne 19.77613 9.83061 6.07257 0.043235 0.136192 -0.628772 
Ne 18.5233 12.01829 5.96987 0.106843 0.158439 -0.774736 
Ne 17.30667 14.23216 6.02204 -0.07405 0.080899 -0.850255 
Ne 16.04213 16.43717 6.00248 -0.012193 0.016629 -0.710067 
Ne 14.79696 18.63786 5.98905 -0.002351 -0.224275 -0.56541 
Ne 13.54248 20.66402 6.00099 0.040759 0.094971 -0.667454 
Ne 12.38684 1.41623 6.09081 -0.220473 0.144137 -0.791269 
Ne 4.87776 1.34139 6.04116 0.1519 -0.001324 -0.697151 
Ne 3.54877 3.43672 6.09425 0.29391 0.224393 -0.795234 
Ne 2.50363 5.72942 6.0458 -0.205644 -0.07281 -0.759973 
Ne 1.21852 7.83684 6.03873 0.062623 -0.030153 -0.508749 
Ne 22.16282 10.00025 5.88203 0.135406 -0.065098 -0.463557 
Ne 20.97968 12.1486 6.02531 0.034931 -0.119173 -0.681371 
Ne 19.71124 14.19502 5.97802 0.030228 0.086976 -0.535608 
Ne 18.49378 16.45235 5.99032 0.091432 -0.174841 -0.695716 
Ne 17.25159 18.50592 5.8926 0.010181 0.208982 -0.430844 
Ne 15.96938 20.73218 5.9055 0.240246 -0.11297 -0.572484 
Ne 14.80926 1.45578 6.07955 -0.02039 0.023506 -0.868404 
Ne 7.34738 1.46922 5.99214 0.046527 -0.068423 -0.605755 
Ne 6.06114 3.52776 6.08524 0.043272 -0.058975 -0.636275 
Ne 4.86582 5.63074 6.13852 0.077871 0.038486 -0.62304 
Ne 3.78104 7.80654 6.0104 0.008727 0.170258 -0.66198 
Ne 2.47821 9.99086 5.96542 -0.059225 -0.082266 -0.585294 
Ne 1.3171 12.29548 6.10117 -0.051675 -0.552216 -0.860071 
Ne 22.17421 14.24679 6.09937 0.004773 0.079324 -0.75686 
Ne 20.91731 16.37286 5.97121 0.118097 -0.059443 -0.543072 
Ne 19.79608 18.53026 6.01497 -0.192262 0.063856 -0.775447 
Ne 18.48153 20.62673 6.10144 -0.001764 0.055555 -0.663112 
Ne 17.318 1.37374 6.06053 -0.089343 -0.028887 -0.972668 
Ne 8.63734 3.66727 6.01593 -0.368082 -0.194155 -0.592608 
Ne 7.24496 5.72173 5.91066 0.17378 -0.008188 -0.56504 
Ne 6.30697 7.95691 6.16281 -0.385328 -0.058131 -0.979738 
Ne 5.02398 10.02895 6.0533 0.034243 -0.352008 -0.678726 
Ne 3.85387 11.99421 5.98444 -0.484652 0.312515 -0.644 
Ne 2.59003 14.16839 6.03845 -0.119211 0.24916 -0.622041 
Ne 1.21778 16.41566 6.00444 -0.032838 -0.255387 -0.605316 
Ne 22.16911 18.53373 6.07156 0.076164 -0.089818 -0.663498 
Ne 20.96317 20.68084 5.98425 -0.023702 -0.178657 -0.625024 
Ne 19.90593 1.43643 6.06942 -0.320503 -0.023847 -0.695684 
Ne 10.89479 3.62922 6.04898 0.376906 -0.319259 -0.674972 
Ne 9.76648 5.80705 6.0157 0.006498 0.056532 -0.714824 
Ne 8.65016 7.95186 5.86154 -0.112678 -0.09207 -0.49476 
Ne 7.46353 10.05602 5.99166 -0.071522 0.108481 -0.584492 
Ne 6.10651 12.17805 5.93375 0.415327 -0.133324 -0.482969 
Ne 4.93721 14.25101 6.04931 0.045464 0.053198 -0.591704 
Ne 3.65455 16.38208 5.96792 0.086557 -0.041269 -0.531819 
Ne 2.45798 18.44564 5.99623 -0.131708 -0.138893 -0.655892 
Ne 1.15503 20.65094 6.07858 0.033386 -0.074525 -0.676108 
Ne 13.51368 3.57061 6.05934 -0.173847 0.002147 -0.609579 
Ne 12.24411 5.66651 6.00426 0.039487 0.098308 -0.831876 
Ne 10.9936 7.93244 5.92282 0.176361 -0.059252 -0.771693 
Ne 9.85494 10.06844 6.1256 -0.157566 -0.0747 -0.725429 
Ne 8.66156 12.19432 6.07 0.120963 -0.123616 -0.909175 
Ne 7.42597 14.16694 5.95752 -0.058122 0.297768 -0.490196 
Ne 6.13691 16.33127 5.99974 0.077687 -0.056517 -0.615488 
Ne 5.00197 18.47151 5.99607 -0.14208 0.056372 -0.522162 
Ne 3.58746 20.42344 6.01463 0.332342 0.373546 -0.654335 
Ne 15.94005 3.56177 6.12385 0.150042 0.182113 -0.984877 
Ne 14.78379 5.71438 6.07166 0.028956 -0.030768 -0.880529 
Ne 13.46907 7.82894 6.09128 0.229163 0.004187 -0.878753 
Ne 12.21902 10.01422 6.05481 0.371652 -0.188428 -0.779502 
Ne 11.16856 12.06405 5.95198 -0.272516 0.314306 -0.71953 
Ne 9.95847 14.30598 6.06103 -0.103395 -0.137615 -0.698402 
Ne 8.60816 16.36961 6.01029 0.105703 -0.136135 -0.518985 
Ne 7.43413 18.46544 6.04468 -0.015079 -0.006216 -0.55177 
Ne 6.14182 20.64529 6.05775 -0.032033 -0.047378 -0.577931 
Ne 18.44716 3.44007 5.99152 0.16994 0.218208 -0.753724 
Ne 17.26592 5.81016 6.08393 -0.003906 -0.442418 -0.640211 
Ne 16.06714 7.79765 6.03922 -0.333806 0.304463 -0.841856 
Ne 14.71991 9.92063 6.04495 0.088921 0.029568 -0.675473 
Ne 13.70726 12.07579 5.87474 -0.000612 -0.050919 -0.563028 
Ne 12.44587 14.10688 5.94137 -0.11937 0.18504 -0.577192 
Ne 11.27057 16.27928 6.03733 -0.106341 0.023854 -0.683433 
Ne 9.92693 18.35289 6.11744 -0.112651 0.17675 -0.779571 
Ne 8.63446 20.55627 6.02162 -0.020419 -0.060103 -0.619399 
Ne 1.20795 0.62745 8.12848 -0.08929 0.099516 0.615821 
Ne 0.02702 2.96972 8.06335 -0.122204 -0.26881 0.611787 
Ne 20.96604 5.0445 8.0093 -0.076079 -0.07248 0.710465 
Ne 19.71905 7.24386 7.92914 -0.052964 -0.036925 0.51074 
Ne 18.3916 9.35859 7.97209 0.167401 -0.156138 0.695969 
Ne 17.28987 11.43201 7.91238 -0.082876 -0.151085 0.836838 
Ne 16.18345 13.4647 7.97433 -0.613585 0.267322 0.68439 
Ne 14.83253 15.79919 7.95965 0.095389 -0.286956 0.744111 
Ne 13.61323 17.88945 8.0539 -0.138922 -0.023076 0.512847 
Ne 12.35301 19.96641 7.82391 0.216206 -0.004711 0.87167 
Ne 11.14623 0.73691 7.9165 -0.098193 -0.32909 0.704981 
Ne 3.52244 0.74132 7.87721 0.342022 -0.320909 0.879557 
Ne 2.41407 2.85811 7.99307 -0.129573 -0.243809 0.751609 
Ne 1.32195 5.00425 7.9737 -0.353993 0.157216 0.627404 
Ne 22.18368 7.09981 8.05496 0.097692 0.177646 0.507387 
Ne 20.97622 9.40761 8.07392 0.031583 -0.26618 0.503044 
Ne 19.66275 11.44905 7.88676 0.168652 -0.04004 0.749435 
Ne 18.41635 13.62601 7.98129 0.454772 -0.224282 0.639865 
Ne 17.25728 15.71363 7.85708 -0.059665 0.108718 0.80598 
Ne 15.96083 17.92739 7.9989 0.378938 -0.208466 0.49637 
Ne 14.97568 20.02377 7.96654 -0.452904 0.079472 0.584206 
Ne 13.64249 0.81698 8.00466 -0.240783 -0.257492 0.754592 
Ne 6.1544 0.77199 7.99299 -0.052881 -0.123421 0.635105 
Ne 4.83541 2.76832 8.01662 0.170747 0.16243 0.670513 
Ne 3.60147 4.93312 8.01578 0.489779 0.027314 0.72487 
Ne 2.60429 7.12568 7.9938 -0.22246 0.130978 0.617575 
Ne 1.25885 9.25378 7.99242 0.003459 -0.00208 0.493782 
Ne 0.06209 11.40843 7.89378 -0.019347 -0.066034 0.631333 
Ne 20.91086 13.47651 8.07592 0.017795 0.06652 0.575609 
Ne 19.71715 15.60761 7.98257 0.051464 0.088985 0.530904 
Ne 18.51984 17.82035 7.93097 -0.342068 -0.010621 0.616464 
Ne 17.32458 19.95218 8.07667 0.04638 0.100136 0.480223 
Ne 16.02575 0.76057 7.93841 0.2111 -0.048165 0.761152 
Ne 8.58496 0.58775 7.96255 0.067077 -0.01472 0.628399 
Ne 7.49478 2.83522 7.98255 -0.243398 0.005764 0.577458 
Ne 6.25499 4.90133 7.99983 -0.165451 0.076087 0.67267 
Ne 5.01616 7.153 7.98698 -0.098266 -0.11872 0.697218 
Ne 3.78601 9.2904 7.95725 -0.126288 -0.227895 0.573668 
Ne 2.57834 11.36326 7.92926 -0.340188 0.030276 0.641037 
Ne 1.19345 13.53002 8.01459 0.167031 -0.046564 0.834415 
Ne 0.02941 15.58962 7.9677 -0.193375 0.204698 0.681517 
Ne 20.8183 17.75739 7.97777 0.373963 -0.154976 0.680952 
Ne 19.75311 19.92554 7.95342 -0.03436 0.03019 0.702845 
Ne 18.52678 0.88367 7.94479 0.020744 -0.467486 0.785293 
Ne 9.7944 2.63455 8.04273 -0.020991 0.372062 0.535707 
Ne 8.70467 5.03982 7.96058 -0.151352 -0.051914 0.6688 
Ne 7.36461 7.09493 7.92149 0.41212 -0.125125 0.771992 
Ne 6.27614 9.32566 8.04081 -0.213148 0.067395 0.707991 
Ne 4.90668 11.33854 8.02234 0.397125 0.131758 0.683817 
Ne 3.75007 13.44612 8.02878 -0.189625 0.075178 0.581541 
Ne 2.50722 15.53921 7.99917 -0.14998 0.181728 0.528642 
Ne 1.15573 17.68852 8.00756 0.10961 -0.107069 0.627551 
Ne 0.02866 19.7449 8.08038 -0.267369 0.277839 0.642166 
Ne 20.98422 0.55013 8.01851 0.057777 0.217298 0.761695 
Ne 12.11767 2.88847 8.02108 0.442296 0.127437 0.566687 
Ne 11.05091 5.02036 7.9054 0.029043 0.066638 0.831867 
Ne 9.87524 7.27541 7.91677 -0.289472 -0.205243 0.640661 
Ne 8.57864 9.26499 8.05616 0.166252 -0.007762 0.52788 
Ne 7.49239 11.47944 7.9482 -0.458337 -0.130734 0.629233 
Ne 6.08346 13.48121 8.01688 0.309396 0.149806 0.55244 
Ne 4.8574 15.69465 8.00125 0.165394 -0.200967 0.56758 
Ne 3.63426 17.76473 8.03931 -0.007892 0.076419 0.496712 
Ne 2.34262 19.81301 7.88257 0.240996 0.098418 0.876569 
Ne 14.7567 2.88241 7.97407 -0.163615 0.147353 0.882678 
Ne 13.54197 5.12992 7.90682 -0.144718 -0.184532 0.849167 
Ne 12.17907 7.22132 7.82317 0.202068 -0.267134 0.907409 
Ne 11.084 9.33191 7.97583 -0.068394 0.098623 0.807836 
Ne 9.80587 11.42295 8.00763 0.366494 0.073638 0.744763 
Ne 8.64402 13.52851 7.94937 0.027691 0.402779 0.765887 
Ne 7.41784 15.69973 7.99026 0.012242 -0.194581 0.540051 
Ne 6.0661 17.7132 7.95135 0.204241 0.291355 0.687672 
Ne 4.83548 20.00596 8.07673 0.069464 -0.092743 0.507651 
Ne 17.23685 2.84466 7.8484 -0.018981 0.055977 1.018455 
Ne 16.0186 4.96934 8.04127 0.086074 0.105356 0.676543 
Ne 14.91188 7.1222 7.93235 -0.341855 0.090905 0.815021 
Ne 13.46749 9.24084 7.99418 0.081658 0.093372 0.715014 
Ne 12.33547 11.52518 7.83833 0.0877 -0.195002 0.806399 
Ne 11.1519 13.56053 7.96609 -0.093988 -0.153988 0.603906 
Ne 10.04805 15.71229 7.97895 -0.358616 -0.01406 0.662601 
Ne 8.68143 17.79677 8.08445 -0.134891 -0.067783 0.598414 
Ne 7.38218 19.91486 7.96747 -0.108448 -0.154294 0.683012 
Ne 19.8047 2.80129 8.04788 0.057047 0.202373 0.575907 
Ne 18.48553 4.86699 7.94368 -0.018769 0.215646 0.765996 
Ne 17.27501 7.24796 7.93962 0.186178 -0.190142 0.829964 
Ne 15.88996 9.30987 7.98411 0.248965 -0.025847 0.623809 
Ne 14.76658 11.37734 8.05037 0.052617 0.051869 0.490413 
Ne 13.69746 13.48883 7.90713 0.037202 0.062449 0.673332 
Ne 12.45101 15.50912 8.018 0.060079 0.304328 0.554996 
Ne 11.20841 17.79444 7.92676 0.132343 -0.14163 0.822098 
Ne 9.97287 19.83467 8.04398 -0.199821 0.237021 0.608265 
180
lattice="22.198932648 0.0 0.0 -0.000460784 21.36066627 0.0 0.0 0.0 14.0" energy=31.65110919 virial="170.283779342858 0.5493002417819821 -0.7648022827798012 0.5493002417819821 172.16727795420928 1.3951902950352946 -0.7648022827798012 1.3951902950352946 110.30576176824292" properties=species:S:1:pos:R:3:force:R:3
Ne 0.04719 1.35566 6.03615 0.194051 0.292312 -0.666877 
Ne 21.13497 3.4685 6.09512 -0.153101 0.278414 -0.880437 
Ne 19.67318 5.60927 6.05973 0.165796 0.095671 -0.688313 
Ne 18.47762 7.74768 5.9388 0.029058 0.062029 -0.56826 
Ne 17.22634 9.87268 5.94725 0.093536 -0.09092 -0.597745 
Ne 16.09276 12.26416 6.02515 -0.096992 -0.275122 -0.6306 
Ne 14.78696 14.27838 5.97723 -0.13896 -0.065689 -0.641602 
Ne 13.66648 16.41447 5.92099 -0.405869 -0.170152 -0.547129 
Ne 12.32741 18.57681 6.05001 -0.114596 -0.492397 -0.592452 
Ne 11.2673 20.61189 6.01394 -0.198971 0.30505 -0.510567 
Ne 9.92718 1.50895 5.96636 -0.082171 -0.152083 -0.643773 
Ne 2.4816 1.45305 6.03189 0.032998 -0.147446 -0.65229 
Ne 1.27564 3.58948 6.02646 0.072143 0.074773 -0.633949 
Ne 22.09266 5.78474 6.06123 0.433657 -0.214266 -0.666052 
Ne 20.97223 7.79191 5.97059 -0.060958 0.151946 -0.601888 
Ne 19.67731 9.89165 5.96067 0.111653 0.028682 -0.509703 
Ne 18.37735 11.9308 6.02829 0.342159 0.394882 -0.796795 
Ne 17.2391 14.30508 6.0174 0.145416 -0.108401 -0.605311 
Ne 16.122 16.33032 6.01202 -0.192553 0.117676 -0.853722 
Ne 14.77249 18.44055 5.97302 0.000219 0.194737 -0.814564 
Ne 13.66093 20.54091 6.08217 -0.265225 0.115753 -0.657027 
Ne 12.28395 1.44034 6.03911 0.333969 0.057574 -0.899407 
Ne 4.91423 1.47758 6.02771 0.10312 -0.237057 -0.904813 
Ne 3.72968 3.60887 6.08848 -0.008325 -0.094606 -0.837894 
Ne 2.57531 5.75513 6.02986 -0.391573 -0.012486 -0.615326 
Ne 1.26333 7.8596 6.08461 -0.191382 -0.036074 -0.516528 
Ne 22.16002 10.02463 6.12884 -0.131564 -0.167624 -0.759007 
Ne 20.83652 12.15329 6.04607 0.015892 -0.045655 -0.893568 
Ne 19.65913 14.31589 6.0855 -0.206816 -0.366413 -0.876809 
Ne 18.50753 16.43228 6.03414 -0.127126 0.050076 -0.602281 
Ne 17.1861 18.54479 6.05254 0.193681 0.002633 -0.780703 
Ne 15.93144 20.6543 6.0493 0.422936 -0.184784 -0.778176 
Ne 14.79081 1.33032 6.07699 -0.096126 0.435158 -0.911652 
Ne 7.4449 1.40132 6.06656 -0.094036 0.152197 -0.613028 
Ne 6.11304 3.59216 6.03986 0.167035 -0.144503 -0.640178 
Ne 4.90724 5.78585 5.92816 -0.016503 -0.07736 -0.560059 
Ne 3.66564 7.94781 6.01107 0.13655 0.06568 -0.641196 
Ne 2.35287 10.01542 6.07262 0.287769 0.065449 -0.820777 
Ne 1.09142 12.10138 6.02633 0.156195 0.137229 -0.726464 
Ne 0.07673 14.25729 6.05585 -0.410394 -0.135932 -0.828531 
Ne 20.83905 16.28703 6.04654 0.419211 0.260373 -0.690143 
Ne 19.68885 18.52706 6.08364 0.032069 0.074968 -0.57919 
Ne 18.46211 20.61959 6.02829 0.13308 0.188381 -0.674292 
Ne 17.26885 1.37369 6.07727 0.177609 -0.060172 -0.667818 
Ne 8.65741 3.62659 5.99943 -0.105592 -0.101078 -0.546293 
Ne 7.26709 5.71573 6.08123 0.33148 -0.102789 -0.784989 
Ne 6.1292 7.86064 6.01099 -0.067115 0.224125 -0.705134 
Ne 4.95884 10.15815 6.01287 -0.424461 -0.296046 -0.637811 
Ne 3.58778 12.21281 6.00209 0.024576 -0.146838 -0.623571 
Ne 2.5071 14.27755 5.97369 -0.103978 -0.014 -0.582194 
Ne 1.15646 16.26342 6.03687 0.155034 0.485934 -0.687009 
Ne 22.13095 18.57802 6.16236 -0.037701 -0.147965 -0.757336 
Ne 20.9489 20.8634 5.98491 -0.041255 -0.506969 -0.559214 
Ne 19.78136 1.49982 6.1489 -0.285822 0.013988 -0.818344 
Ne 11.19535 3.63519 6.0092 -0.101389 -0.340598 -0.780855 
Ne 9.85075 5.67171 5.99705 -0.270745 0.343791 -0.559459 
Ne 8.49529 7.86022 6.02473 0.163203 0.027639 -0.629551 
Ne 7.24089 10.12029 5.94592 0.422216 -0.254537 -0.694448 
Ne 5.98347 12.22324 6.0352 0.183574 0.185596 -0.634019 
Ne 4.91212 14.34742 6.03537 -0.123765 0.052517 -0.654392 
Ne 3.60858 16.45303 5.94453 0.139493 -0.122766 -0.543082 
Ne 2.45657 18.50301 6.03041 -0.12564 0.092491 -0.620533 
Ne 1.31848 20.65305 6.05627 0.016141 -0.035767 -0.609496 
Ne 13.68646 3.54742 5.96783 -0.126271 -0.043914 -0.50243 
Ne 12.20503 5.70559 5.99873 0.397945 0.175829 -0.793833 
Ne 11.01112 7.9301 6.0778 0.049031 -0.237408 -0.73743 
Ne 9.86259 9.98163 5.93604 -0.317678 -0.06182 -0.593351 
Ne 8.48109 12.18212 6.042 0.143593 -0.220771 -0.944171 
Ne 7.31141 14.28472 5.97403 0.098589 0.009635 -0.707947 
Ne 6.19981 16.38955 6.01619 -0.030219 0.089581 -0.785976 
Ne 4.96827 18.51818 6.01989 0.028887 -0.190267 -0.701095 
Ne 3.77914 20.57621 6.10627 -0.167799 0.023757 -0.886246 
Ne 16.13255 3.4821 6.03349 -0.195138 -0.013078 -0.70939 
Ne 14.75134 5.69434 6.09596 -0.033984 -0.284843 -0.825038 
Ne 13.62403 7.73591 6.07137 -0.155351 0.187988 -0.815341 
Ne 12.49614 9.86753 5.93972 -0.005587 -0.076741 -0.605602 
Ne 11.20244 11.84205 6.03894 -0.126477 0.526044 -0.629763 
Ne 9.82161 14.13991 6.04958 0.063519 -0.060534 -0.710664 
Ne 8.72407 16.34294 6.03755 -0.093666 0.047487 -0.668607 
Ne 7.52381 18.48758 5.94451 -0.207264 -0.065107 -0.651452 
Ne 6.23295 20.54942 6.05051 0.056361 0.20605 -0.759409 
Ne 18.54757 3.57004 6.00472 -0.024444 -0.166671 -0.5235 
Ne 17.25252 5.63513 6.09992 0.034669 -0.093099 -0.772507 
Ne 15.99643 7.67733 6.01574 0.16345 0.260653 -0.756981 
Ne 14.91829 9.97781 6.08787 -0.170084 -0.096681 -0.794739 
Ne 13.72893 12.08598 5.92286 -0.325308 0.046568 -0.790774 
Ne 12.21403 14.1868 6.06553 0.220578 -0.172138 -0.729078 
Ne 11.06144 16.32904 6.01008 0.172188 0.149506 -0.624461 
Ne 9.81923 18.71205 6.04866 0.419473 -0.594157 -0.813488 
Ne 8.70076 20.69222 5.86105 -0.051225 0.232759 -0.465471 
Ne 1.15455 0.75043 8.03212 0.377807 -0.04479 0.626888 
Ne 0.07753 2.90622 8.05159 0.286327 0.145448 0.663607 
Ne 21.04296 5.0524 7.96726 0.047811 0.04226 0.739041 
Ne 19.72882 7.11536 7.96337 0.027785 -0.01674 0.550228 
Ne 18.52464 9.19223 8.01922 -0.035066 0.096167 0.485636 
Ne 17.27202 11.30555 7.92033 -0.255359 -0.107216 0.789784 
Ne 15.92985 13.51882 8.04643 0.070522 0.069177 0.616707 
Ne 14.74302 15.60429 7.89497 -0.083281 0.054445 0.726961 
Ne 13.59535 17.7779 7.97852 -0.106226 -0.388249 0.583348 
Ne 12.49016 19.74887 8.08458 -0.337686 0.38293 0.66937 
Ne 11.27429 0.74911 7.9536 -0.450785 -0.41346 0.757619 
Ne 3.78896 0.54198 7.91597 -0.370388 0.245695 0.832773 
Ne 2.55414 2.77013 7.95192 -0.137578 -0.088146 0.76643 
Ne 1.31326 4.92414 8.01888 -0.093861 0.287337 0.51006 
Ne 22.1805 7.14495 8.10357 0.293175 0.012452 0.537536 
Ne 20.9741 9.15988 7.94326 -0.03953 0.300748 0.670234 
Ne 19.69602 11.4308 7.94417 -0.04047 -0.185414 0.724337 
Ne 18.26848 13.49213 7.98673 0.318914 0.051566 0.575603 
Ne 17.19144 15.74758 7.98473 0.039433 -0.321445 0.74145 
Ne 15.92714 17.77692 7.81305 0.200116 -0.092152 0.979063 
Ne 14.93377 19.8521 8.03569 -0.134061 0.123486 0.706833 
Ne 13.58095 0.65162 7.89286 0.015055 -0.010711 0.872123 
Ne 6.1441 0.63989 7.91675 0.426401 -0.03698 0.707607 
Ne 4.93696 2.62883 7.99749 0.106551 0.453053 0.787313 
Ne 3.6638 4.88714 7.96524 0.244081 0.264546 0.795598 
Ne 2.54745 7.16559 7.98981 -0.112461 -0.017538 0.684601 
Ne 1.30501 9.40918 8.0287 -0.185385 -0.262095 0.790231 
Ne 22.09439 11.49785 7.96159 0.085076 -0.059332 0.837897 
Ne 20.83663 13.59653 7.87165 0.206295 -0.025912 0.917852 
Ne 19.68221 15.63457 8.01174 -0.171622 -0.036156 0.813781 
Ne 18.35582 17.7596 8.06926 0.213471 0.246361 0.591413 
Ne 17.35706 19.97949 7.94158 -0.014553 0.040575 0.780348 
Ne 15.95209 0.68886 7.91967 0.312024 0.024688 0.967031 
Ne 8.75135 0.74842 7.95461 -0.144617 -0.269949 0.586736 
Ne 7.44469 2.93411 8.01428 -0.092291 -0.210265 0.538633 
Ne 6.07498 4.94924 7.94816 -0.093664 -0.067305 0.755787 
Ne 4.97745 7.16109 7.94009 -0.279786 -0.080047 0.657074 
Ne 3.76712 9.37698 7.94438 -0.11486 -0.118531 0.637074 
Ne 2.42541 11.50918 7.92419 -0.005195 0.082428 0.7398 
Ne 1.18034 13.63694 7.94232 0.120368 -0.265301 0.767358 
Ne 0.08663 15.72634 7.98805 -0.26104 -0.088381 0.770879 
Ne 20.8377 17.654 8.00337 0.161578 0.361343 0.677267 
Ne 19.87219 20.01941 7.966 -0.138571 -0.093454 0.604938 
Ne 18.67304 0.78273 8.0808 -0.34576 -0.083283 0.604681 
Ne 9.90082 2.78831 7.95488 -0.039589 0.241124 0.611959 
Ne 8.61543 5.03188 8.0296 0.119188 0.016765 0.556919 
Ne 7.30322 7.03625 7.97085 0.179292 0.26329 0.771713 
Ne 6.16823 9.30413 7.95428 -0.062039 -0.134476 0.628004 
Ne 4.87434 11.48849 8.03316 -0.063361 0.048724 0.651896 
Ne 3.72463 13.62599 8.00888 -0.02265 -0.253192 0.584425 
Ne 2.5877 15.57289 8.05319 -0.224488 0.449687 0.504883 
Ne 1.2484 17.79325 7.96106 -0.009983 0.001516 0.667949 
Ne 0.01798 20.04058 7.9505 -0.075944 -0.079536 0.721518 
Ne 21.00058 1.03077 8.05584 0.039552 -0.636852 0.731707 
Ne 12.3083 2.82226 7.98363 0.237079 0.191827 0.613894 
Ne 11.07164 4.94688 7.86835 -0.141267 0.208035 0.993526 
Ne 9.76142 7.34853 8.02817 0.185464 -0.481518 0.5794 
Ne 8.55369 9.29628 7.97533 -0.077794 0.136966 0.472033 
Ne 7.22875 11.40501 7.90068 0.077155 0.108766 0.776914 