  5.4390792e-05   1.7914596e-08
  7.3493902e-05   4.2061851e-07
 -1.3447743e-06   2.4590111e-06
  9.7943184e-06   5.3286349e-09
 -9.5393134e-06   3.0614735e-06
 -5.6668905e-06   4.3519100e-07
  9.6038775e-07   4.9301194e-09
  4.8883416e-05   1.5341568e-07
  1.1815454e-06   1.5096289e-08
 -1.5983811e-05   9.7027875e-10
 -3.7133650e-05   4.1342895e-07
  1.2705215e-06   2.4663674e-07
  4.1424362e-05   6.9448589e-07
 -1.5533558e-05   6.0375882e-10
 -1.4063533e-05   6.8659892e-07
 -1.8254868e-05   3.1792949e-10
 -1.9516227e-05   7.9872302e-07
  6.6015482e-06   2.2432083e-08
  5.7707319e-07   1.6433700e-09
 -3.4444420e-05   2.7975331e-09
  3.2276232e-05   6.0423829e-08
 -2.4846440e-06   1.3627566e-07
 -2.3465213e-05   4.5718863e-08
 -5.0650342e-06   7.8134104e-07
  1.6558377e-05   1.2379680e-07
 -3.0742012e-05   1.4159346e-07
 -5.7448597e-06   8.7105176e-12
  2.2212509e-05   2.5672671e-08
  4.5474635e-06   5.2468641e-07
 -1.4768808e-06   4.7707545e-07
 -2.7023849e-05   2.0489333e-07
 -1.0661497e-05   6.6355083e-06
 -1.8274461e-05   3.6555139e-08
 -8.5284398e-07   9.5082351e-09
  4.0316304e-06   1.2695776e-08
 -4.4837964e-07   3.5089190e-08
  3.1453926e-06   2.9546510e-07
 -4.0992905e-05   2.6274151e-11
 -3.1945392e-06   1.4606646e-11
  1.6535179e-05   6.3697385e-09
  1.4599290e-05   9.7245956e-10
 -2.7187957e-06   7.9182388e-07
 -4.6557423e-02   3.1682826e-10
 -3.6970652e-03   6.1579160e-13
  1.8614685e-03   1.2045039e-11
 -2.6810108e-02   3.4609291e-11
 -2.0532757e-02   1.5171588e-12
  6.0082398e-02   3.7144736e-12
 -1.3439371e-01   3.7600659e-11
 -4.7130125e-06   1.5794158e-11
 -5.6200683e-01   1.1287385e-09
  8.5664324e-02   1.2451963e-10
 -1.0736910e-01   4.1687401e-10
 -4.0641078e-03   1.7307844e-12
 -8.7464210e-03   1.5147683e-10
 -3.4706417e-01   3.1932085e-10
  5.5953842e-02   8.4440832e-10
  6.3843286e-04   2.4808788e-10
  1.4231877e-01   3.5041119e-12
 -3.4415761e-03   2.1507003e-09
  1.9357292e-03   1.0167530e-12
 -2.4812648e-03   5.7856952e-11
 -3.2282490e-03   1.3444632e-10
  9.2181273e-02   2.1399162e-11
 -3.5910247e-04   5.8833978e-09
  1.2268179e-01   1.9091595e-11
 -5.0872710e-02   3.7038553e-11
  3.4580389e-03   3.0115452e-11
 -1.0811483e-02   5.7849470e-10
 -4.5407345e-03   4.1127355e-11
  3.3182140e-02   1.8233406e-10
 -7.2369799e-02   2.8565523e-11
  6.9219753e-02   1.6849879e-09
 -9.1762923e-02   1.0431917e-11
 -5.3048907e-03   1.5207320e-11
 -2.7596442e-02   1.3042836e-10
 -4.0218662e-02   3.1737873e-10
 -2.4073349e-02   4.6184953e-10
  1.5611031e+00   1.1990788e-07
  5.3845993e-03   1.6704755e-08
 -3.6156038e-05   2.0368059e-08
  3.5414251e-03   9.8565236e-12
  1.8232080e-04   4.0059005e-11
 -1.4984488e-02   5.8672004e-08
  6.6940230e-04   1.2398693e-09
 -2.1962682e-05   2.3196758e-09
  1.6808222e-01   8.0466039e-10
  2.3735563e-05   2.1042768e-10
 -7.1491368e-02   9.4517285e-12
  8.1941005e-05   1.8062807e-09
  5.2727088e-02   1.7820027e-11
 -2.4519259e-06   6.5050356e-09
  4.9530490e-06   1.6830072e-11
 -5.8016572e-06   6.8212622e-09
  4.0533741e-06   3.9116269e-11
  9.4315168e-05   2.9632974e-12
 -3.9876915e-07   7.9670681e-10
 -1.8081946e-07   6.3495337e-10
 -7.4145231e-05   1.6849315e-08
  1.0326981e-05   5.9268764e-11
  4.1523355e-05   9.3520407e-11
 -2.8260836e-06   3.3420086e-08
  1.8831286e-05   9.3733448e-09
  3.1411255e-05   1.9193473e-10
  1.1914892e-05   2.7786669e-08
  2.4790343e-05   1.0795837e-10
 -3.3695302e-05   5.0063866e-11
 -1.5128279e-04   2.3072062e-08
  7.5761359e-06   4.6269196e-08
  3.5751422e-05   2.0710065e-08
  7.0750415e-05   1.5201353e-10
  1.6024014e-05   3.6923197e-08
  2.9455556e-05   1.6720953e-11
 -1.0993660e-05   1.8284133e-08
 -1.4551649e-05   1.6666842e-09
 -9.7314036e-08   1.2546132e-08
  8.1008882e-05   4.5932422e-09
  2.6939699e-05   1.9693553e-09
 -6.2217041e-05   2.5265316e-11
 -1.3092201e-06   5.2327891e-07
 -3.2803124e-05   3.1031254e-07
  2.4454879e-05   3.6805827e-07
  2.7636055e-05   9.8684644e-08
 -9.2171331e-06   5.7329931e-08
  1.3351394e-05   4.3455000e-09
 -1.0730317e-05   8.1225602e-07
 -1.5677194e-01   3.4123939e-09
 -8.3940327e-03   6.6026210e-13
 -6.6606498e-01   7.9195589e-10
 -1.6933645e-01   4.2916564e-12
 -4.1355139e-01   5.0904874e-11
 -7.1825936e-02   2.9260544e-10
 -6.0280789e-02   1.0992229e-10
  2.3779987e-05   7.4310714e-12
  2.4791270e-06   1.1908480e-08
  9.7816184e-05   6.1586930e-11
  5.4767102e-06   1.1835782e-10
 -1.9569339e-03   4.4021915e-11
 -2.5388817e-05   5.5890488e-09
 -1.1183066e-05   6.1159651e-09
  1.8133753e-04   2.0477697e-09
 -2.8556527e-05   5.7726468e-09
  2.5331345e-05   1.5560227e-10
 -1.4263326e-06   1.3624227e-08
  1.5112525e-04   3.9978087e-11
 -1.7683635e-02   2.8247890e-10
 -1.8474871e-02   2.2393183e-09
 -1.3430820e-06   2.1262624e-10
 -2.3985708e-08   4.8304267e-09
  4.2744569e-04   1.8288054e-08
 -1.9650543e-03   1.5292824e-11
 -5.1490995e-05   4.7194328e-09
 -2.1633008e-03   4.3698840e-11
 -3.7047091e-01   2.0255195e-09
  4.2144296e-05   7.3835302e-09
  1.3095503e-05   3.0628174e-11
  2.7733282e-04   4.1565489e-09
 -1.0556493e-04   1.2005939e-10
 -1.3602145e-04   2.8461997e-10
 -4.1031428e-03   6.1180533e-11
 -4.0197039e-01   7.7147688e-10
  1.6485452e-05   5.4812188e-10
  3.2184664e-05   7.5398219e-07
  1.8570405e-05   6.8718826e-09
  3.3473876e-05   1.5135207e-08
  2.3126154e-06   8.7792301e-10
  4.2673300e-06   1.1857328e-08
 -1.0264465e-05   1.5141213e-09
  2.4402336e-05   1.2913316e-07
  2.5294261e-05   3.3486486e-08
 -1.2185204e-05   3.7884897e-07
 -5.0160954e-05   3.4625741e-06
  1.3994238e-05   1.9953538e-06
 -2.3704808e-05   6.9899858e-07
  1.4402441e-05   1.3319799e-08
 -9.9600984e-06   5.3038858e-09
 -9.5161186e-06   6.9785237e-08
  5.7681364e-06   1.1484634e-06
  4.9908213e-06   2.9471582e-06
 -3.1821834e-05   5.7235980e-07
 -5.5082077e-05   5.9218098e-07
 -2.5946356e-05   8.3605181e-07
  4.1508189e-05   4.7717725e-07
 -2.5533374e-05   2.1603265e-08
  2.2496230e-05   4.5948465e-08
  1.4301672e-06   7.8785905e-07
  1.0090201e-06   1.2289776e-08
  1.5293961e-05   3.3106204e-08
  4.3444834e-07   6.1719898e-06
  6.0497832e-06   7.7726457e-07
 -1.3965074e-06   1.3864567e-07
 -1.6361328e-05   1.0716064e-09
 -2.1597334e-05   3.5147636e-07
 -2.4627323e-05   4.8389114e-07
 -2.2773950e-06   1.6914633e-09
 -1.2974553e-05   4.7590703e-07
 -1.4192967e-05   4.3231334e-09
 -1.9967105e-05   8.7058261e-08
  1.1166152e-05   1.7434436e-08
 -7.0344086e-06   2.4462108e-06
 -6.1738538e-06   8.6593991e-07
 -1.4871030e-05   1.6716729e-09
  3.4069308e-06   5.2298509e-11
 -4.1584076e-06   1.7029428e-06
  1.4530518e-05   1.2100426e-07
  3.2607288e-05   8.0780244e-11
  6.7126973e-07   3.8536410e-08
  9.1934444e-06   2.2774260e-07
 -1.0640344e-05   7.6050043e-07
  3.7713205e-06   2.4195074e-07
  3.1699768e-01   2.2373661e-13
  5.1320696e-01   6.1465737e-12
 -5.9157819e-02   2.7680480e-10
  1.3832122e-02   5.8030858e-11
  1.4594786e-01   1.5594918e-11
  8.5200806e-04   5.6108454e-13
  1.0906985e-01   3.6554779e-10
  2.8112054e-05   4.3701948e-10
  5.3899630e-06   2.6338572e-08
 -3.5472563e-05   3.4792745e-08
 -3.8346561e-06   1.3994583e-10
  2.3219080e-05   1.8793249e-10
  3.9042476e-05   3.1158433e-11
 -1.4429538e-05   9.2150811e-09
  1.2914400e-06   1.1142043e-08
 -4.4285280e-06   3.4852241e-10
  1.6277487e-05   1.2416290e-08
  1.3078404e-05   6.3468100e-08
  1.5816379e-06   9.0491364e-11
  1.0905144e-02   1.9751574e-10
  3.3661954e-03   1.1365412e-09
 -3.8865084e-05   8.1924822e-09
 -1.6163087e-06   5.0488072e-09
 -7.3183219e-05   6.2889846e-11
  5.0939582e-03   6.1421884e-10
 -1.9894052e-05   1.9356472e-09
  1.9944007e-02   2.0020798e-10
  3.2925949e-01   2.4898827e-10
 -6.3400256e-07   1.5784288e-08
 -4.6292756e-05   1.0799919e-09
  1.8423625e-05   5.3431964e-10
  2.6035353e-03   3.0425773e-09
  1.9213336e-03   5.7381336e-11
  4.4906128e-02   3.6679562e-11
  2.8903610e-01   4.5255835e-09
  1.8668223e-05   2.6592033e-07
  2.8054870e-05   2.6607875e-06
 -2.3476339e-06   3.8678261e-10
 -1.8714829e-05   1.2826799e-09
 -3.8224289e-06   3.9160124e-09
  2.3343777e-05   8.1760234e-09
  1.3073842e-05   6.7949694e-11
 -4.2906351e-05   4.6110502e-09
 -1.3610018e-05   1.1407618e-09
  6.3530373e-05   2.2757542e-08
 -1.8069679e-05   1.6136953e-07
  1.0002357e-05   1.0068014e-08
 -1.6026980e-06   1.3436110e-09
  1.0893538e-06   5.1421104e-08
  9.6098747e-06   6.8170607e-08
 -5.8503683e-06   7.4184520e-08
 -5.8584337e-06   1.1981008e-08
 -4.4419226e-06   1.9776398e-07
 -1.1155223e-05   1.2569163e-06
  3.5633270e-06   7.5174071e-08
  1.4996658e-05   1.5564727e-07
 -2.9869059e-07   1.8368502e-06
 -7.9491319e-06   3.0957781e-06
  3.0840549e-06   1.1453806e-06
  3.8229755e-06   1.1824722e-08
 -6.8963991e-06   5.0534158e-08
 -3.5093717e-06   3.5355610e-09
  3.4987243e-06   1.3263987e-08
  2.8681932e-06   1.2078679e-09
 -2.4463070e-05   3.4702050e-10
  7.7508248e-06   1.8113514e-09
  3.4141458e-06   8.2476097e-09
  2.4137227e-05   7.2677437e-07
  5.7573416e-05   1.1691613e-10
 -2.2976405e-05   1.5656130e-07
  2.5346958e-06   8.1271203e-08
  6.7480847e-05   1.7005035e-09
  2.2702126e-05   1.2744154e-09
 -8.4744079e-07   7.3244649e-07
 -1.0921167e-04   6.3348000e-11
 -2.3337945e-05   6.1855004e-10
  1.0258488e-05   1.9415577e-07
 -1.0775235e-06   2.1492389e-07
 -1.0173265e-05   7.6461781e-08
  1.2716258e-07   5.4717130e-08
  8.7280951e-06   1.1304095e-08
 -3.0801593e-06   1.0289059e-07
  2.5321802e-05   4.2892992e-08
 -4.4091437e-05   7.7825916e-07
 -5.9978686e-07   7.9442991e-08
 -4.2153530e-05   3.2986975e-09
  3.6986370e-04   3.0493357e-09
  5.8322788e-05   4.1267754e-09
  8.6716054e-06   4.9956406e-10
 -2.4148150e-05   8.6232586e-09
  2.7518156e-05   1.4860333e-08
  9.5153991e-06   2.0979767e-10
 -1.3621304e-04   4.4318868e-11
 -5.9701611e-05   8.2998685e-07
  3.1702762e-05   7.1969288e-07
 -4.5215515e-06   2.0703367e-10
  2.0766765e-05   6.1710955e-07
  3.9153532e-05   1.1568643e-08
 -6.1049650e-06   8.3363014e-09
  3.6950765e-05   9.1073975e-09
 -1.6342950e-05   1.9360596e-06
 -1.2331963e-05   2.1713147e-07
 -9.4584618e-07   1.0618479e-07
  2.0025531e-05   7.1828140e-07
  7.0669557e-08   1.4902765e-09
  1.0427196e-05   3.9223048e-07
 -8.6549044e-06   2.8219099e-06
 -6.6732719e-05   1.7049040e-07
  1.8988805e-05   2.5266527e-07
 -2.5972313e-05   5.7797386e-08
 -7.4980826e-06   6.4119416e-07
  2.9331775e-05   1.1787915e-09
 -1.2564456e-06   7.1109201e-07
 -2.9162875e-06   6.0330871e-07
 -7.2732320e-07   2.6755002e-08
 -7.2367075e-05   8.1980378e-09
 -6.7497763e-06   7.2216750e-07
  3.0777435e-05   9.1793389e-08
  1.1073124e-05   7.8592615e-07
 -7.8255507e-06   8.9587793e-10
 -1.8816392e-06   4.2287300e-07
  1.0819169e-05   7.8623462e-11
  2.0570260e-05   3.3375349e-07
  2.0023777e-05   1.6391911e-07
  3.1931800e-06   1.1151104e-07
  3.9306764e-05   2.0549855e-10
 -4.2853993e-01   2.2005477e-10
 -1.1882396e+00   6.2216855e-13
  5.9634435e-01   1.4583409e-10
 -6.9366217e-01   8.2752720e-09
 -1.2849575e-01   1.8156379e-11
  1.7067376e+00   1.2112165e-08
 -6.1725146e-01   4.9014370e-09
 -2.6309258e-06   1.6620956e-11
 -9.1402793e-01   5.8135647e-09
  2.6091075e-04   2.4374933e-13
  1.9954726e-04   1.9351232e-08
 -2.9956794e-01   6.2305344e-10
  9.3409969e-03   1.7449763e-09
 -1.0495108e+00   3.4044740e-09
  3.7350086e-03   5.0715498e-10
 -7.1971029e-01   6.5704024e-09
 -4.8744500e-05   3.6841954e-10
 -3.8875904e-02   8.3641263e-09
 -1.5698528e-01   2.4723759e-09
  1.2817314e-01   1.0324765e-09
 -9.2461246e-01   1.4813296e-09
  6.0460286e-04   1.2565013e-10
 -8.0857325e-01   3.9753678e-10
  2.4894883e-03   6.3224349e-11
 -5.9308883e-02   5.0357132e-09
 -1.2500283e-01   1.8243438e-11
  2.5327331e-03   7.7859458e-10
 -3.3830208e-01   5.0368455e-12
  1.2420893e-01   5.3656437e-12
 -8.3871007e-01   3.4540296e-10
  1.3773958e-04   7.1190484e-11
 -6.2989225e-06   2.4946859e-11
 -7.1469121e-02   1.7121751e-09
  3.0808678e-01   2.7046429e-10
 -1.6469206e-01   3.9380942e-13
 -4.5055618e-05   3.5553818e-09
  1.9235040e-01   3.1504410e-10
  1.3827483e-05   9.2295471e-10
 -1.0657388e-06   2.2575528e-09
 -1.0239636e-05   7.9113009e-09
  2.6310716e-02   5.0546962e-09
 -1.3392826e-05   2.1747036e-08
  8.2567170e-02   1.6490742e-10
  6.5854502e-01   9.3176591e-11
 -1.6307713e+00   1.0116677e-11
 -3.0185662e-03   1.5560762e-13
  1.8111689e+00   1.0655708e-08
 -4.2515975e-01   7.2973370e-11
 -1.9541824e+00   4.1464737e-10
  8.3532308e-07   1.4330854e-09
 -2.6880264e-07   2.8884239e-09
  1.4232072e-05   3.8271081e-10
 -2.1868029e-06   6.7862660e-11
 -8.2670756e-02   9.9847344e-12
 -5.3630825e-03   5.3896825e-09
  3.4726709e-06   8.8405177e-09
 -3.6763518e-05   1.7976134e-09
 -1.1680112e-05   5.3640550e-09
  1.4823972e-04   2.1568480e-09
 -7.5206481e-05   1.6305627e-09
 -2.2677466e-02   4.3630549e-10
 -7.1095318e-02   9.5872277e-12
 -2.6100772e-04   8.4953694e-10
 -8.5886146e-05   1.4283498e-08
  3.6420955e-05   1.4333686e-08
  5.1691458e-02   3.6131706e-08
 -1.1884103e-04   6.6173317e-10
  2.5307332e-07   3.4066119e-09
 -2.4708170e-02   9.1989871e-10
 -5.4430379e-06   1.6415825e-11
  3.9785714e-06   5.3607629e-11
 -3.8161543e-05   5.5373932e-09
  2.2947956e-05   2.9709385e-08
 -1.1483256e-01   3.7463326e-09
 -1.4329674e-04   1.0282931e-12
 -1.1746651e-01   4.1976159e-11
 -7.4632484e-01   1.0198926e-10
 -1.5385149e-05   6.6146111e-09
  4.2149499e-05   1.0581265e-06
 -3.7718146e-05   5.6891277e-08
 -2.4965253e-05   3.2200710e-08
  6.5067514e-05   2.4164603e-08
  6.1085452e-06   2.3708737e-09
  1.1261350e-06   7.7731222e-08
  9.4206371e-05   2.7258356e-08
  5.7659663e-06   1.1393314e-08
 -6.5651424e-05   9.7649276e-13
 -4.4293498e-05   1.7285974e-07
  2.4316001e-05   2.8827736e-09
 -8.1249173e-06   2.6840764e-08
  2.0966015e-06   2.1797199e-08
 -3.0935778e-06   3.6500489e-06
  1.9277390e-06   1.4912576e-08
 -3.7678735e-06   1.5432727e-06
 -5.0800554e-06   2.6904439e-07
 -3.4836514e-05   7.2448728e-11
  4.6696719e-06   5.5362813e-07
 -1.4232967e-05   1.4187731e-07
 -7.3067931e-05   9.2261637e-08
  1.9145818e-05   2.1598845e-09
 -2.0087798e-06   1.7063106e-08
 -1.9646361e-05   3.6112658e-06
 -2.9418359e-05   6.3854566e-10
  5.0291161e-05   3.4562294e-07
  2.8349030e-05   4.6230406e-09
  2.4243864e-05   2.0524004e-08
  5.1416896e-06   2.1121691e-08
 -5.3467447e-06   1.2942106e-06
  2.6195221e-06   6.4853682e-09
  2.6415939e-05   8.3881361e-07
 -2.3276732e-05   2.1363300e-07
  3.4839028e-05   5.1570066e-07
  8.3233899e-06   1.2363188e-08
  7.0007027e-06   7.5622694e-07
  1.3686295e-05   1.4271015e-07
  1.2454544e-05   9.5980504e-08
 -6.7323572e-06   3.3518549e-07
  4.8108748e-05   1.1219797e-07
  4.9144192e-06   2.6553754e-10
 -2.7146643e-06   8.6415026e-09
 -3.4595199e-05   1.7288078e-06
 -4.3383743e-06   9.0220436e-09
  1.6623762e-05   6.0553917e-09
  3.2919752e-06   7.2043593e-07
 -9.4139905e-06   5.2383997e-10
 -3.0980900e-06   1.8545092e-12
  1.2889947e-03   1.2201582e-09
 -6.5678805e-06   4.2477631e-15
 -2.2651783e-01   1.9487896e-11
 -5.1194256e-05   1.5794770e-09
 -9.1513345e-04   3.7979217e-13
  6.4873697e-05   1.3353854e-10
  1.4140615e-01   1.7071515e-09
 -1.2318345e-05   9.3476567e-11
 -2.4228579e-05   3.6651010e-10
 -1.4424691e-05   1.2879691e-09
  1.6378965e-07   5.5697741e-10
 -2.3192155e-05   6.9197220e-10
  4.2452146e-05   1.4287572e-09
 -4.6393207e-06   1.2801238e-10
 -8.9847512e-05   6.6637901e-10
 -4.3414544e-05   3.0340441e-08
 -5.0593644e-05   2.1928783e-09
  6.2103589e-07   8.5506198e-09
 -2.0131014e-05   1.3287135e-08
  2.6212560e-04   3.4658685e-09
 -9.3502166e-07   3.0235169e-11
 -1.8274297e-04   1.6166835e-08
  5.5958109e-05   4.9557863e-10
 -2.3700384e-05   2.2047722e-08
  4.6616718e-05   5.4861241e-11
 -4.9873906e-05   5.2109445e-10
  8.5649597e-05   1.7460332e-10
 -5.9815461e-06   7.3639879e-12
 -2.9815970e-05   6.2271357e-09
  1.6642836e-06   2.2722263e-08
 -1.0181317e-04   3.5467469e-09
 -1.7458062e-05   3.0595695e-09
  4.6392910e-05   2.9031846e-12
  7.8367312e-03   5.7391636e-10
 -4.7445916e-05   1.0799194e-08
  1.5514486e-05   4.5036309e-08
 -2.6439169e-05   4.6776982e-11
  1.1049381e-05   4.0431313e-08
 -1.1008931e-05   2.4074851e-09
 -9.8384944e-06   5.2344049e-09
 -3.4531633e-05   1.4042801e-08
 -3.8707778e-05   1.0733809e-07
 -5.6946203e-02   2.8850183e-10
  4.9676182e-05   1.2047042e-12
  3.1793945e-05   2.1297172e-12
 -1.1536670e-02   1.9983314e-11
 -4.5083258e-03   9.1699860e-12
 -4.8909802e-05   9.9448040e-11
 -1.7002553e-01   7.1637579e-10
  2.5906962e-05   6.5074119e-08
 -4.5495945e-06   8.4700176e-09
  3.2926095e-05   3.6233011e-08
  5.3326617e-06   1.1622221e-09
 -2.8263323e-05   4.5329653e-11
  1.0595994e-05   2.9256144e-09
  7.0822066e-06   6.6719070e-09
 -7.3805463e-06   6.8401884e-09
  8.2620318e-05   1.8681245e-08
  8.9654903e-05   6.1110984e-11
  3.0620278e-05   5.1061746e-09
  5.3811666e-05   1.1840723e-09
 -8.8944988e-05   1.8970249e-10
 -6.3126485e-05   1.0336569e-09
  7.7907294e-05   5.5008681e-10
  8.8379602e-05   3.9840112e-10
  1.1667852e-04   1.6318478e-09
  7.1352930e-05   2.1190005e-10
 -1.2033676e-05   1.5373444e-10
 -3.5128794e-03   6.6814448e-10
 -1.4848184e-06   4.5143136e-10
  3.3727248e-04   3.8345953e-09
 -9.7376578e-05   8.1133272e-10
  4.9380642e-06   7.5296186e-11
 -3.3693123e-04   1.1292610e-09
 -1.3221169e-04   2.7028304e-12
 -1.5252365e-02   2.8530853e-11
 -7.7243130e-05   2.9634450e-10
 -1.1548648e-05   1.2489219e-08
  3.5824301e-05   8.0665899e-08
 -3.2455362e-05   2.1595099e-08
 -8.4755920e-06   2.1878208e-08
  1.3298624e-05   6.8710632e-10
  1.1670085e-05   2.5824397e-08
 -7.4811072e-07   7.0579709e-08
 -2.1046704e-02   3.7401027e-10
 -4.9215693e-02   2.6968107e-11
 -1.8970786e-01   1.9625836e-13
 -8.8718096e-03   1.4016837e-09
  8.2903534e-02   4.7085097e-10
  6.0401098e-06   8.9111121e-11
 -1.0587364e-01   1.0723407e-11
 -1.4014468e-07   1.7162712e-10
  8.3921304e-06   6.5695012e-08
  4.3627610e-05   1.8872624e-08
 -3.5539852e-05   1.7535378e-11
 -1.5091471e-04   7.8769838e-11
 -2.7266162e-05   8.5554570e-11
 -3.9611514e-05   2.3836294e-11
  4.4240664e-06   2.9870018e-10
  2.3509472e-05   3.0737734e-08
  3.0701804e-06   1.3051174e-08
  6.9437978e-05   6.7522734e-09
  1.9263762e-05   9.1595659e-10
 -2.2734916e-04   3.4433214e-09
 -2.0388876e-05   4.4200105e-11
  2.2215539e-04   5.0428887e-11
 -2.6126869e-05   2.5663600e-09
  2.0027309e-04   1.4733290e-09
 -2.8268941e-04   6.4036718e-09
 -4.5898036e-05   1.6158474e-11
 -1.7789241e-03   2.3846839e-11
 -2.6364407e-05   5.3123657e-09
 -2.8112110e-05   3.2566302e-08
 -3.0132051e-04   2.7304732e-09
  4.3823866e-06   7.0240674e-11
 -4.1522627e-04   2.4954065e-09
 -1.0495699e-03   3.6081199e-10
 -4.7809113e-02   5.8017291e-10
 -1.8245701e-02   2.5934804e-10
 -9.8664332e-06   5.6344270e-11
  3.5107150e-05   1.9345789e-06
 -2.5764423e-06   1.3696567e-08
  2.3845738e-05   2.1018231e-11
 -2.4137003e-07   6.1868460e-10
  9.1589436e-06   4.7549275e-08
  4.9570674e-05   6.8165924e-08
 -1.4292454e-02   2.1362573e-10
  4.7419649e-05   2.5395765e-09
 -2.5609836e-05   2.9134930e-12
 -5.1383176e-05   2.6623927e-11
  4.4947838e-06   9.9721731e-11
  5.2976968e-05   7.7950433e-12
 -1.7882021e-01   2.0316063e-10
 -1.7930221e-04   1.5445406e-09
  9.5720570e-06   6.7953543e-10
  1.3348268e-04   2.2563088e-10
 -4.6074470e-05   1.7125995e-08
  1.7462813e-06   6.1395528e-11
  5.9659033e-06   9.2458068e-09
  5.2342798e-06   2.4743310e-09
  8.0421905e-06   1.3821062e-09
 -2.6305835e-05   6.3352260e-08
  1.4727523e-04   3.1846950e-10
  7.8147633e-07   5.7433973e-09
  2.5389985e-05   1.1173378e-08
 -6.6589011e-05   8.7817726e-09
  4.9192768e-06   2.9052662e-09
 -1.7743032e-05   8.5109769e-14
 -5.0238494e-05   4.3924746e-13
 -3.2874374e-05   2.9157441e-08
  2.9859041e-06   2.0268379e-11
  2.3686076e-05   1.0633820e-08
 -3.6598492e-04   3.3596331e-10
 -7.5985132e-05   2.7339103e-10
 -2.2942351e-05   3.6399674e-09
 -1.3431434e-04   7.2451445e-09
  1.8387058e-04   3.2019394e-12
 -7.7223476e-06   2.3119570e-10
 -3.4804450e-06   1.6220700e-11
 -8.9950049e-03   6.7084271e-10
  2.5947691e-05   5.5980420e-09
 -3.3394630e-05   7.1991200e-09
  4.0806161e-05   5.7065881e-09
  8.3744535e-06   1.1964700e-07
  2.7189217e-06   1.3370659e-07
 -2.1402935e-05   4.7908113e-09
  4.2355041e-05   1.0950833e-08
 -7.7138320e-06   4.7839688e-08
 -1.2550701e-01   3.0173863e-10
 -1.2528513e-01   3.1478856e-10
  2.2561359e+00   5.9330557e-10
  3.0205119e-01   6.0560734e-10
 -1.7154000e+00   2.3763147e-09
 -2.1094428e-01   2.6995289e-10
  1.3135260e-01   1.9551648e-12
  1.0777330e-04   1.9657000e-09
 -2.8733788e-05   6.8581224e-11
  9.6431286e-05   1.3314342e-08
  1.2797235e-05   5.0937193e-10
  7.8416131e-02   2.2233342e-10
  6.4976084e-01   9.8518271e-10
  1.2458690e-05   4.1385365e-10
  2.0416829e-01   7.5681849e-13
  1.8344161e-05   1.9989841e-08
  1.2084563e-04   5.4658753e-09
  1.2249971e-04   1.5361521e-11
 -5.8490541e-02   1.2511348e-09
  3.9960974e-01   4.3689163e-14
  5.2637386e-01   8.8848068e-11
  6.6260577e-06   1.7456983e-10
  2.6732305e-05   1.2100307e-14
  4.0271446e-02   4.0463108e-09
 -3.7632290e-02   2.3377017e-10
  3.6159452e-02   2.3343635e-10
  6.3426971e-02   4.1347293e-14
 -7.4346554e-01   5.3052385e-09
  1.1732515e-01   2.6395557e-09
 -6.6902380e-06   2.5507674e-08
  5.4026665e-03   1.1756571e-09
  5.2620100e-05   2.2797726e-11
 -4.4433985e-02   5.4157590e-12
  8.8051595e-02   3.5211729e-11
  7.7572149e-05   6.9802004e-09
 -3.5771696e-05   3.8705597e-08
  2.1460737e-05   9.8698933e-08
  9.0218156e-05   2.8190369e-10
  8.2474035e-06   1.5048837e-08
 -3.0352589e-04   8.8549372e-09
 -2.7373881e-05   3.1749969e-10
 -2.1807668e-06   9.4510373e-09
 -6.1225046e-07   6.7301253e-10
  5.1698877e-05   9.4960626e-08
  6.9928021e-05   2.6814904e-08
 -9.9587713e-05   8.0715257e-09
  3.8201921e-05   3.2295656e-08
 -1.3907914e-04   5.9749546e-11
 -2.8093753e-05   1.3242385e-07
  5.1310703e-06   1.6845334e-07
 -7.6110817e-05   1.5293186e-09
 -4.7315789e-06   6.2704743e-08
 -1.2326695e-05   1.3481269e-07
  1.4229325e-04   1.4466068e-08
  1.8644473e-06   4.6083053e-07
  3.2517444e-05   4.5566701e-08
 -6.3663159e-05   2.3819309e-06
  4.3222368e-05   5.8641196e-11
 -1.3412017e-05   6.2652504e-08
 -1.2787082e-05   5.8519572e-07
 -2.4395509e-05   1.5262414e-12
 -3.6292473e-05   6.3548611e-09
 -4.1381554e-06   3.6018896e-08
  1.9625155e-05   9.6860499e-11
 -2.6105005e-05   6.4107707e-07
 -3.8152748e-06   3.2811369e-07
  2.6372414e-05   4.3357997e-07
 -8.2038903e-05   8.3888878e-08
  4.3621891e-05   2.2418214e-09
  2.0841273e-05   3.9245531e-08
  2.9482944e-06   8.2306082e-09
 -3.9347146e-05   4.7692183e-08
 -2.7968586e-06   1.0068645e-07
  4.9765827e-06   4.6399114e-07
 -2.8368848e-07   5.2779047e-08
  9.5354508e-06   5.9884155e-09
 -3.0354326e-05   2.8836903e-08
  4.5114385e-07   8.6540162e-08
  3.9394590e-06   4.5091824e-08
  4.3716254e-06   2.7703678e-07
  6.4729380e-07   6.6660522e-10
 -3.9087076e-06   2.2551410e-08
  2.7896695e-06   5.6746438e-07
 -9.0815238e-06   2.1814815e-08
  2.6403183e-01   9.3913584e-12
  5.7381713e-01   5.1400040e-11
 -2.3886877e-01   1.7082637e-11
  1.5848249e-01   6.2114740e-12
 -5.1209778e-01   1.0829008e-09
  7.8762360e-02   3.5467664e-11
  8.2822639e-01   4.0739732e-09
  1.2669334e-05   9.0862165e-13
  1.8126610e-01   2.4704867e-08
 -4.2641932e-05   1.6640108e-09
  1.6615964e-05   2.4366311e-09
 -1.0958015e-03   6.8617029e-11
  1.4870705e-03   1.3337307e-08
  3.2770064e-01   3.3385574e-09
 -1.8822325e-02   4.4991189e-10
  8.0200713e-05   2.0932658e-08
 -8.3032748e-05   1.3243912e-09
 -4.2760994e-06   2.6797535e-09
 -1.3120832e-02   3.2455557e-12
 -7.7974185e-02   5.3615051e-10
 -7.9450678e-05   3.8281232e-09
 -1.0339017e-01   5.3476376e-11
  6.4813472e-02   1.3218263e-08
 -5.5485431e-02   9.3353554e-11
 -6.3053672e-06   4.3603194e-12
 -3.1967372e-02   3.1611450e-10
 -4.2034775e-02   2.0422222e-09
  5.0557420e-02   4.1163473e-10
 -1.3144367e-03   2.1678470e-09
  1.2767968e-01   1.1869124e-10
 -7.3940755e-05   5.5881588e-12
  2.3700257e-05   8.0159757e-10
  9.1053449e-02   4.4012577e-10
  1.5597790e-02   1.2397815e-11
  1.8103233e-04   8.7227815e-11
 -3.2782158e-05   2.0959992e-09
 -3.6074442e-05   6.3196586e-07
  3.9063038e-05   5.3954206e-09
 -9.4978823e-06   1.6679610e-09
  6.1730079e-06   3.1960748e-10
 -2.9526234e-03   2.7979103e-13
  1.2676116e-05   7.3402689e-10
  1.4812657e-02   1.4986887e-10
 -1.8817012e-05   1.7519670e-11
  7.6530305e-06   2.1471321e-12
  3.6740018e-04   1.0926714e-10
  2.5730364e-02   7.4810418e-12
  1.6150383e-04   5.5320393e-10
  6.3622206e-02   4.1097209e-11
  3.7073532e-05   1.2635287e-08
  2.3197217e-06   6.8690240e-09
  1.2093424e-06   8.2828594e-10
  2.2447131e-05   2.6675799e-12
 -1.1973259e-05   2.0373661e-10
  1.4406597e-04   4.0236364e-10
 -6.0453680e-05   1.0344551e-11
 -5.5249035e-05   3.1845886e-09
  1.8524024e-05   3.1575699e-08
  6.6134180e-07   6.7008321e-10
 -8.8415727e-06   3.2097876e-08
 -1.0516235e-05   8.8498091e-11
  3.4955135e-04   6.3840755e-10
  1.3010038e-05   4.4826535e-08
  2.2728002e-05   2.0450060e-10
  7.6809347e-06   8.7980560e-11
 -4.8433245e-05   4.4092712e-11
  1.5009550e-04   2.4473345e-11
  6.0714035e-05   3.3918651e-10
  7.3033205e-04   2.6746194e-09
 -1.2798844e-05   2.0300174e-10
 -1.7767075e-04   1.9173802e-08
  1.6757427e-04   4.4575856e-08
 -3.9501600e-05   4.8940624e-08
  1.8346708e-04   1.2714064e-08
  4.8654572e-05   1.0848268e-09
  1.0197514e-02   1.0756414e-08
 -3.9999627e-06   3.2090192e-10
  1.6502758e-05   1.0066877e-07
  1.2625848e-05   3.1268613e-08
 -1.5893840e-05   8.0634933e-08
 -3.4228935e-06   4.3500212e-10
 -1.2639149e-04   2.8778276e-08
  2.1440632e-05   2.6333733e-08
  2.5061754e-05   1.4101958e-08
 -2.0186572e-01   2.3127818e-10
 -5.3806644e-02   2.2210105e-12
 -7.9608232e-01   2.7848409e-11
 -2.6036132e-02   7.8995152e-12
 -8.9397836e-01   2.2831177e-09
 -3.5229021e-01   9.8738693e-13
 -4.1173599e-03   1.4393602e-12
 -6.6961529e-06   7.6954558e-09
 -7.2243973e-04   1.8604992e-12
  3.4965278e-04   9.1729530e-10
  1.1444117e-04   2.7544347e-10
 -2.5263308e-03   2.7664273e-09
  3.3026288e-05   2.8621389e-10
 -2.2790123e-04   1.0811905e-08
 -5.8961086e-05   3.9618897e-10
  1.1042473e-04   9.1982956e-11
  4.3296066e-05   5.3585010e-12
 -1.3159835e-04   6.5066930e-13
  5.0614169e-03   2.9453146e-12
 -1.1676237e-02   2.3451976e-10
 -6.9390699e-02   2.2857760e-10
  6.6662920e-05   6.9849175e-11
 -1.1140620e-06   9.0120082e-12
  3.4779337e-06   8.5556199e-13
 -1.3539478e-02   1.2765665e-09
 -3.3429954e-03   1.6052121e-09
 -6.0392017e-03   4.3621035e-10
 -1.6347668e-01   1.9205237e-09
  8.2715551e-06   8.5099545e-11
 -1.4590369e-04   9.3804159e-11
  3.6552146e-03   7.9094793e-09
 -1.6423248e-06   6.3682526e-10
  1.3542160e-03   4.6835001e-11
  1.0168815e-05   6.0069720e-11
 -1.9284005e-01   6.0805738e-10
 -5.6421050e-05   2.5275994e-12
  5.9519578e-05   3.7335994e-07
  5.2743103e-06   9.5575672e-09
  2.6772510e-05   2.9569283e-09
 -4.0429049e-06   2.2785249e-11
  7.0355525e-03   1.5445300e-08
  1.4902847e-05   4.5321674e-08
 -6.7852157e-01   2.9846958e-11
  1.6698734e+00   2.7507302e-10
 -1.5695660e+00   1.0190349e-10
  2.0191820e+00   9.7704241e-12
  7.6064670e-01   6.0346722e-10
 -3.5701582e-01   3.8184653e-11
  3.4776473e-01   1.6012067e-10
 -4.1026313e-02   3.3485417e-10
 -1.0388660e-02   1.3021618e-07
  6.0368102e-04   2.0316707e-10
 -3.2601707e-05   1.5435496e-09
 -6.7272431e-01   9.2829788e-09
  1.2113749e-01   1.3396176e-11
 -7.7684665e-01   1.4862841e-09
  4.2359270e-06   1.7117409e-09
 -4.5170626e-01   7.5040507e-09
  1.0223623e-01   4.4702073e-10
 -7.5695943e-06   1.8956960e-08
 -5.4540839e-02   3.3425315e-10
 -2.4450789e-01   1.4400862e-11
 -5.5277669e-01   3.3758250e-13
  9.5998757e-02   1.3247997e-10
 -4.0486179e-02   3.4929041e-08
  3.1483635e-06   5.0917017e-09
 -8.9945846e-05   2.1526203e-12
 -8.1691138e-02   1.5463221e-10
 -4.6800826e-02   1.2906523e-12
 -1.4241331e+00   4.5766004e-09
 -1.5455007e-05   7.8165219e-10
 -4.9940228e-01   2.3581613e-08
  1.5006025e-01   7.1184560e-09
 -1.3892376e-01   2.6661264e-09
 -1.0271965e-02   8.6407784e-11
  1.7374144e-01   8.0722856e-10
 -1.3330618e+00   2.1816602e-09
 -8.8724000e-06   1.0879780e-07
  7.0337821e-03   4.8593398e-07
  2.2291538e-06   1.9899792e-07
  2.1812275e-05   2.2693538e-07
 -6.7203306e-04   1.9990036e-08
 -5.5001294e-03   1.2753533e-10
 -1.5667258e-02   5.1202025e-09
 -7.0383935e-06   1.2957724e-09
  1.0996380e-05   4.7726767e-11
 -1.3003073e-04   5.6391669e-09
  1.1928411e-04   1.3457209e-08
  1.2056353e-04   6.1929142e-11
  2.8777763e-06   1.4209661e-07
  1.4265632e-04   1.7761604e-08
 -5.5856822e-06   4.2911729e-08
 -2.5221614e-05   7.2607764e-09
  4.8711139e-05   1.4138688e-07
  1.1750595e-05   5.2355259e-10
  1.4440472e-05   2.8858058e-10
  1.2504054e-06   5.2633640e-09
  1.3119939e-05   1.8869809e-08
 -1.2867462e-05   5.6943374e-08
  4.6230703e-05   9.8495647e-09
  2.1842684e-06   1.7997677e-06
 -3.4506880e-05   5.1626091e-12
  1.4097662e-05   9.9863939e-10
 -1.2676604e-05   2.2037058e-07
  9.4259121e-06   6.6542600e-07
  9.7254642e-06   2.2783827e-07
 -4.2292479e-05   6.0785860e-10
 -1.5432950e-05   4.9438209e-09
  4.2729957e-06   2.8993703e-08
  7.2608527e-05   1.3989228e-07
  1.0963712e-05   3.2402713e-08
 -2.1506712e-05   3.5132393e-06
 -1.8617209e-05   5.2535580e-07
  1.6887214e-04   1.3678752e-12
 -3.0611191e-06   2.4303009e-08
  1.0230996e-05   1.9001885e-09
  5.5609553e-06   1.5102414e-08
 -3.1853346e-05   1.0675524e-08
 -1.9171719e-05   8.1166633e-08
  1.4837490e-05   1.0915794e-10
  4.3292814e-05   9.4677279e-09
 -2.3174318e-05   6.4806505e-10
 -1.4038613e-05   1.3218926e-06
 -1.5969101e-05   1.2272154e-10
  2.5548059e-05   3.6456534e-08
  9.3474921e-07   4.9157300e-09
 -5.7576936e-01   2.7760608e-10
 -2.7761903e-01   2.2915985e-09
 -1.9242327e-06   7.6511332e-11
  1.6378580e+00   1.4199562e-08
 -5.0599551e-01   1.1644297e-09
  5.2664924e-01   8.5794101e-11
  2.2037919e-01   3.9488239e-12
  5.3057395e-02   1.3617819e-11
  1.0357029e-06   1.7815482e-10
  2.4309309e-06   3.7351335e-09
  2.6483161e-02   1.9935056e-09
  6.8547912e-02   1.1631507e-09
  3.0076539e-02   6.1234568e-13