144
lattice="15.355313301 0.0 0.0 -0.002790445 17.729177255 0.0 0.0 0.0 20.0" energy=9.55494382 virial="83.94362789603818 -0.34775216597797 -0.28749959192549845 -0.34775216597797 81.88382585516487 -1.482797836227574 -0.28749959192549845 -1.482797836227574 42.895618783350386" properties=species:S:1:pos:R:3:force:R:3
Ne 0.16572 17.61303 7.8461 -0.176813 0.151501 -0.260223 
Ne 14.14009 2.21018 7.7305 -0.022523 -0.120514 -0.236947 
Ne 12.73698 4.39643 7.744 -0.005707 0.001681 -0.219957 
Ne 11.43633 6.60237 7.82319 0.072902 -0.197098 -0.264734 
Ne 10.23652 8.67329 7.82252 -0.001637 0.151869 -0.225065 
Ne 8.88669 10.77465 7.73547 0.13278 0.369542 -0.20864 
Ne 7.76134 13.22399 7.76144 -0.109222 -0.049676 -0.247614 
Ne 6.46761 15.29962 7.82785 -0.032705 0.138091 -0.235947 
Ne 5.10941 17.58535 7.85433 -0.097415 0.014937 -0.245199 
Ne 2.63343 17.72323 7.81918 0.004176 0.060273 -0.227378 
Ne 1.31271 2.24269 7.74698 0.015576 -0.050281 -0.203359 
Ne 15.32695 4.4672 7.75751 -0.01337 -0.067736 -0.179714 
Ne 14.01407 6.59254 7.80808 0.082094 -0.057089 -0.159545 
Ne 12.80909 8.66797 7.73159 -0.01894 0.207355 -0.263504 
Ne 11.47508 10.88512 7.86669 0.025649 0.072684 -0.318757 
Ne 10.1753 13.10612 7.82812 0.130437 0.027916 -0.281656 
Ne 9.10592 15.52011 7.77368 -0.138394 -0.048753 -0.261558 
Ne 7.50651 17.67448 7.69736 0.337157 -0.102295 -0.234803 
Ne 3.86733 2.35748 7.80401 -0.078304 -0.163345 -0.281146 
Ne 2.49569 4.47982 7.78859 0.0622 -0.001445 -0.232618 
Ne 1.23763 6.61685 7.87627 -0.048033 -0.09831 -0.165525 
Ne 0.02924 8.79592 7.75194 -0.093326 0.025272 -0.192642 
Ne 14.08302 10.90523 8.00894 0.005376 0.143925 -0.309484 
Ne 12.77443 13.24178 7.78584 0.105173 -0.130912 -0.268885 
Ne 11.57918 15.38049 7.68359 0.004518 0.111796 -0.153772 
Ne 10.25518 0.0754 7.78946 0.048353 -0.177839 -0.263001 
Ne 6.31242 2.03898 7.84082 0.042637 0.21338 -0.308528 
Ne 5.09635 4.56069 7.84843 0.015025 -0.140962 -0.346276 
Ne 3.85587 6.66061 7.85694 -0.05194 -0.016636 -0.264279 
Ne 2.45874 8.67209 7.73936 0.147169 0.271819 -0.282579 
Ne 1.30845 11.04922 7.85986 -0.021393 -0.049355 -0.227126 
Ne 0.02642 13.17407 7.79672 -0.060317 0.017622 -0.217318 
Ne 14.18861 15.4055 7.80542 -0.134081 0.040183 -0.228842 
Ne 12.90114 17.62562 7.83009 -0.04316 0.053946 -0.290649 
Ne 9.00835 2.17642 7.84756 -0.113183 -0.064014 -0.226118 
Ne 7.57071 4.20882 7.75038 0.088173 0.185061 -0.274071 
Ne 6.42719 6.72505 7.73663 -0.070015 -0.144771 -0.251211 
Ne 5.07292 8.88204 7.85091 0.097352 -0.124534 -0.322936 
Ne 3.83604 10.90247 7.79078 -0.142243 0.210137 -0.279251 
Ne 2.56152 13.29011 7.84755 -0.085492 -0.114607 -0.283152 
Ne 1.33052 15.46007 7.77481 0.02371 -0.040886 -0.212876 
Ne 11.58517 2.16544 7.79352 0.014936 0.045642 -0.229836 
Ne 10.18082 4.3684 7.88645 0.052489 0.015012 -0.218808 
Ne 8.90922 6.55273 7.7444 -0.013399 -0.097321 -0.202448 
Ne 7.71576 8.7738 7.80816 -0.175351 -0.043416 -0.189768 
Ne 6.36177 11.10744 7.84534 0.044147 -0.099491 -0.291905 
Ne 4.99864 13.21234 7.73399 0.161209 -0.022867 -0.215232 
Ne 3.85914 15.44776 7.78378 0.015572 0.015774 -0.220429 
Ne 0.06605 1.47353 9.94326 -0.165792 0.006564 0.031183 
Ne 14.0199 3.6071 9.87522 0.128508 0.079508 0.051752 
Ne 12.74939 5.8335 9.98916 0.029793 0.082351 -0.064053 
Ne 11.55502 8.07738 9.94344 -0.044198 0.048471 0.039469 
Ne 10.15137 10.49101 10.04781 0.034322 -0.095755 -0.029992 
Ne 8.89628 12.70345 9.97868 0.058774 -0.244621 0.045037 
Ne 7.72519 14.80586 10.01998 -0.126925 -0.0283 0.01793 
Ne 6.47372 16.98596 9.98916 -0.151583 0.032375 -0.012318 
Ne 5.04852 1.46063 9.926 0.043626 -0.012046 0.127637 
Ne 2.52262 1.40621 10.04948 0.056601 0.099841 -0.111697 
Ne 1.32055 3.68564 10.03562 -0.111759 -0.026574 -0.053182 
Ne 15.34842 5.91812 10.11096 0.040747 -0.012527 -0.290822 
Ne 14.12412 8.21918 10.00555 0.023468 -0.196043 -0.086607 
Ne 12.73588 10.24925 9.93201 0.023182 0.125285 0.204191 
Ne 11.60564 12.58351 9.88689 -0.161478 -0.119815 0.124503 
Ne 10.24937 14.74149 10.00158 0.127749 0.081353 -0.002718 
Ne 9.01692 16.96912 9.85748 -0.030786 0.143097 0.094804 
Ne 7.58912 1.55664 9.97302 0.116875 -0.080569 0.035266 
Ne 3.82639 3.6902 9.94658 0.034065 -0.041763 0.128552 
Ne 2.59304 5.83119 10.07422 -0.012357 0.137069 0.011169 
Ne 1.43279 8.11375 10.05379 -0.361798 -0.08613 -0.015166 
Ne 0.09427 10.26479 10.11541 -0.137989 0.171731 -0.070068 
Ne 14.12144 12.56942 10.05572 -0.009792 -0.2311 -0.045877 
Ne 12.80115 14.66673 10.13869 -0.066799 0.215415 -0.09138 
Ne 11.57041 16.9512 9.9718 -0.094933 -0.073574 -0.044044 
Ne 10.32692 1.50011 10.01916 -0.30477 -0.083091 -0.00921 
Ne 6.36447 3.80972 9.91605 0.006056 -0.216478 0.131922 
Ne 5.16233 5.95637 9.93616 -0.150773 0.1206 0.158184 
Ne 3.73334 8.15842 9.95726 0.304152 -0.125718 0.103879 
Ne 2.54853 10.3315 9.95614 0.006907 0.109585 -0.013376 
Ne 1.28628 12.63516 10.11351 -0.138745 -0.200958 -0.156119 
Ne 15.21331 14.72775 9.99319 0.231612 0.179196 0.011128 
Ne 14.04574 17.06253 9.9882 0.120815 -0.089935 0.045659 
Ne 12.70127 1.45937 10.01744 0.361466 -0.005085 -0.043562 
Ne 8.95379 3.69466 10.01295 -0.017878 0.034055 0.014728 
Ne 7.62266 5.94224 9.94394 0.135971 0.055598 -0.059642 
Ne 6.31227 8.24823 9.94957 0.112523 -0.169895 0.078525 
Ne 5.02901 10.3233 9.98358 0.077567 0.170643 -0.000193 
Ne 3.72783 12.58626 9.96433 0.233931 -0.087767 0.063795 
Ne 2.5054 14.74496 10.00003 0.072033 0.125653 -0.029189 
Ne 1.26781 16.93621 10.04231 -0.049025 -0.018327 -0.08267 
Ne 11.52172 3.63803 10.14492 -0.110634 0.203425 -0.174473 
Ne 10.23433 5.93868 10.02087 -0.08252 -0.053465 0.014503 
Ne 9.00431 8.20256 10.04785 -0.080363 -0.03124 -0.087923 
Ne 7.60359 10.40016 10.02412 0.144718 -0.114769 0.002922 
Ne 6.38755 12.4544 9.97605 -0.122578 0.287402 0.057719 
Ne 5.1584 14.70868 9.9893 -0.00189 0.023585 0.07926 
Ne 3.79583 16.91872 9.99437 0.147718 -0.006867 -0.022509 
Ne 1.23863 0.79395 12.20066 0.164899 0.02347 0.240003 
Ne 15.26871 2.99633 12.17165 -0.005809 0.011136 0.181449 
Ne 14.02014 5.31851 12.03345 -0.056291 -0.130726 0.40517 
Ne 12.8506 7.54304 12.12016 -0.038964 -0.208533 0.242191 
Ne 11.4974 9.57579 12.13191 -0.009735 0.303943 0.217438 
Ne 10.17181 11.93545 12.16788 0.179912 -0.05844 0.219558 
Ne 9.07162 14.15218 12.22512 -0.106179 0.053662 0.240479 
Ne 7.65755 16.33586 12.09491 0.105013 -0.055965 0.280445 
Ne 6.44512 0.80944 12.23136 -0.088021 0.000483 0.198843 
Ne 3.84353 0.78149 12.10587 0.07843 0.030382 0.28445 
Ne 2.50745 2.91689 12.27593 0.030616 0.016042 0.209131 
Ne 1.20153 5.13311 12.22014 0.050629 0.052336 0.28962 
Ne 0.05742 7.43853 12.10049 -0.043697 0.102063 0.328028 
Ne 14.02385 9.65596 12.2921 0.122687 0.140251 0.22206 
Ne 12.73898 11.94241 12.12294 -0.015542 -0.087044 0.22384 
Ne 11.58139 14.23048 12.35435 0.001355 -0.179227 0.236347 
Ne 10.33607 16.38525 12.19694 -0.120979 0.033954 0.189095 
Ne 8.96421 0.80835 12.10873 0.049784 -0.03845 0.194148 
Ne 5.17775 3.02239 12.21988 -0.08309 -0.189981 0.159782 
Ne 3.75167 5.0511 12.26044 -0.004486 0.19484 0.199303 
Ne 2.52053 7.39308 12.37148 0.067597 0.017685 0.208213 
Ne 1.34768 9.73451 12.16915 -0.054558 -0.229408 0.343523 
Ne 15.34777 11.88926 12.25929 -0.033398 -0.10279 0.258535 
Ne 14.21431 14.06375 12.31557 -0.16302 0.09492 0.26329 
Ne 12.88976 16.31945 12.15693 0.015621 0.004646 0.24116 
Ne 11.63525 0.83998 12.1728 -0.066281 -0.014709 0.306837 
Ne 7.7206 3.05055 12.19045 -0.107888 -0.033605 0.214165 
Ne 6.2402 5.19723 12.17756 0.133562 0.133945 0.217325 
Ne 5.02391 7.47655 12.21793 0.059692 -0.103487 0.17135 
Ne 3.9408 9.7421 12.09914 -0.218396 -0.127361 0.313012 
Ne 2.52298 11.82597 12.17531 0.128766 0.160445 0.276889 
Ne 1.30336 14.10137 12.12545 0.073541 0.051222 0.335511 
Ne 0.07906 16.36201 12.18931 -0.05235 -0.223372 0.233175 
Ne 14.2039 0.7207 12.35948 -0.254557 0.175247 0.185003 
Ne 10.20296 3.02142 12.25563 0.053237 0.037486 0.270678 
Ne 8.82672 5.27951 12.14999 0.115182 -0.059548 0.239433 
Ne 7.64885 7.39153 12.05879 -0.118959 0.112723 0.260581 
Ne 6.37217 9.66707 12.2043 0.123325 -0.003848 0.246675 
Ne 5.11533 11.93671 12.23326 0.025488 -0.024397 0.176494 
Ne 3.86709 14.0971 12.23458 -0.029425 -0.008971 0.191712 
Ne 2.58838 16.33875 12.13008 -0.016861 -0.072057 0.320165 
Ne 12.76649 3.12706 12.1636 0.06297 -0.075424 0.341528 
Ne 11.40227 5.37792 12.31222 0.090593 -0.14281 0.223314 
Ne 10.25704 7.52142 12.19945 -0.098424 -0.143255 0.243345 
Ne 8.9441 9.60504 12.23701 -0.063673 0.124314 0.25293 
Ne 7.71579 11.90218 12.19855 -0.056982 -0.067811 0.215444 
Ne 6.49074 14.04728 12.42626 -0.048682 0.11694 0.15072 
Ne 5.09579 16.29916 12.23357 0.103688 -0.01257 0.185997 
144
lattice="15.355313301 0.0 0.0 -0.002790445 17.729177255 0.0 0.0 0.0 20.0" energy=9.32784154 virial="81.42243318854874 0.031944399102833164 0.1684897135657945 0.031944399102833164 83.3228870513442 1.858586309928775 0.1684897135657945 1.858586309928775 41.404732897137194" properties=species:S:1:pos:R:3:force:R:3
Ne 15.34673 17.68177 7.73744 0.049176 -0.003997 -0.175964 
Ne 14.20446 2.11466 7.71276 -0.134026 0.213308 -0.198915 
Ne 12.7422 4.69285 7.74435 0.127736 -0.139611 -0.204827 
Ne 11.5482 6.78628 7.71783 -0.019177 0.039522 -0.198653 
Ne 10.24707 8.94109 7.73901 -0.056254 0.040808 -0.241947 
Ne 9.05888 11.19238 7.8117 -0.111378 -0.218546 -0.263364 
Ne 7.72591 13.21622 7.86368 -0.103442 0.167024 -0.278443 
Ne 6.36997 15.49596 7.95208 0.11645 -0.033479 -0.330872 
Ne 5.04583 17.69792 7.73415 0.038328 0.057432 -0.232977 
Ne 2.55463 0.0412 7.88566 -0.033724 0.011052 -0.312731 
Ne 1.2867 2.46001 7.80793 0.090858 -0.262974 -0.250423 
Ne 15.29866 4.50866 7.7596 0.021061 0.042075 -0.22996 
Ne 14.12258 6.83372 7.73231 0.004124 -0.003911 -0.209701 
Ne 12.84662 9.08117 7.79259 0.077855 -0.248145 -0.233946 
Ne 11.56891 11.08568 7.7316 -0.0558 0.154553 -0.290621 
Ne 10.23195 13.41914 7.78406 0.044036 -0.08409 -0.254023 
Ne 8.92668 15.60661 7.79153 -0.035864 -0.00163 -0.270338 
Ne 7.62012 0.0925 7.70451 0.007521 -0.05327 -0.25977 
Ne 3.85687 2.30951 7.84851 -0.130502 -0.128633 -0.310061 
Ne 2.7416 4.5313 7.81458 -0.287798 -0.085986 -0.252393 
Ne 1.29133 6.65364 7.7761 -0.008493 0.014809 -0.214371 
Ne 0.12039 9.02931 7.80267 -0.134223 -0.195215 -0.175924 
Ne 14.17823 11.16484 7.71459 -0.070043 0.070753 -0.171481 
Ne 12.84235 13.2413 7.87628 0.01793 0.166046 -0.283215 
Ne 11.41853 15.55339 7.89738 0.075527 0.091862 -0.228562 
Ne 10.29617 0.24426 7.66852 -0.049516 -0.120629 -0.183484 
Ne 6.2748 2.28823 7.86388 0.171056 -0.092524 -0.256995 
Ne 5.18096 4.50363 7.71433 0.021659 -0.079476 -0.214914 
Ne 3.85752 6.64345 7.73161 -0.022079 0.128455 -0.248993 
Ne 2.59407 8.86674 7.77981 -0.06846 -0.019024 -0.283894 
Ne 1.24159 11.14202 7.90411 0.161417 0.104304 -0.241889 
Ne 0.09506 13.44038 7.81243 -0.181373 -0.105309 -0.264008 
Ne 13.92164 15.54011 7.81367 0.100417 -0.022217 -0.205851 
Ne 12.77805 0.07268 7.72983 -0.028635 -0.015896 -0.155558 
Ne 8.89966 2.26955 7.84177 0.081674 0.013301 -0.25844 
Ne 7.71791 4.43215 7.83447 -0.044675 0.08826 -0.276039 
Ne 6.3362 6.63064 7.78298 0.190915 0.07146 -0.285975 
Ne 5.04362 8.81726 7.80394 0.118116 0.026322 -0.204024 
Ne 3.86696 11.01464 7.74825 -0.082867 0.109705 -0.206167 
Ne 2.57684 13.24062 7.69924 0.099328 0.050554 -0.176722 
Ne 1.32497 15.53175 7.75771 0.04899 0.052021 -0.26718 
Ne 11.64601 2.50457 7.92108 -0.007461 -0.251069 -0.236097 
Ne 10.19998 4.46366 7.75864 0.012041 0.129251 -0.14421 
Ne 9.04748 6.75678 7.76514 -0.080883 -0.107343 -0.228443 
Ne 7.56749 8.8087 7.76072 0.173207 0.1077 -0.207224 
Ne 6.34985 10.9992 7.8989 0.164464 0.006715 -0.246355 
Ne 5.22461 13.19496 7.80301 -0.12513 0.095655 -0.193362 
Ne 3.91255 15.41684 7.78984 -0.116835 0.035539 -0.197411 
Ne 15.25172 1.39346 10.04658 0.235585 0.051902 -0.148127 
Ne 14.05438 3.77767 9.87812 0.04194 -0.159621 -0.020156 
Ne 12.85022 6.01188 10.0003 -0.040566 -0.109535 -0.011323 
Ne 11.57639 8.18257 9.89733 0.006627 0.00654 0.051461 
Ne 10.3376 10.42523 9.93932 -0.116918 -0.1449 0.09614 
Ne 8.89525 12.52367 9.98004 0.134971 0.030292 0.057376 
Ne 7.72373 14.76058 10.00024 -0.135849 0.006481 0.031961 
Ne 6.35522 17.03112 9.92275 0.035872 0.075631 0.143606 
Ne 5.03345 1.50356 9.98471 0.232887 -0.011752 0.096552 
Ne 2.58497 1.39031 9.9827 -0.202139 0.096261 0.06449 
Ne 1.40135 3.58948 10.00259 -0.17214 0.165983 -0.042586 
Ne 0.02168 5.86247 10.02245 0.125153 0.083468 -0.052226 
Ne 14.09456 8.13669 9.96369 0.174573 0.107892 0.004 
Ne 12.85512 10.40559 10.02103 0.019503 -0.048098 -0.021122 
Ne 11.53221 12.53416 9.84194 -0.064329 0.08741 0.205923 
Ne 10.2088 14.73406 10.07657 -0.036045 0.025851 -0.205399 
Ne 8.85119 16.99782 9.89212 0.11895 0.061515 0.060134 
Ne 7.70588 1.51277 9.92075 -0.12043 -0.04975 0.13363 
Ne 3.86741 3.67896 9.97523 0.101585 0.126806 0.059095 
Ne 2.70767 5.95451 9.93966 -0.178764 -0.105835 0.098943 
Ne 1.35946 8.10618 9.94226 -0.203796 0.001341 0.094205 
Ne 15.34613 10.4795 10.1549 0.019652 -0.19909 -0.158077 
Ne 14.09089 12.63558 10.10085 -0.112476 0.02705 -0.042778 
Ne 12.65992 14.78095 10.10593 0.173997 -0.002945 -0.096816 
Ne 11.39395 17.04871 10.00153 0.080635 -0.017769 -0.089976 
Ne 10.30648 1.53269 10.03791 -0.067801 -0.09076 -0.066554 
Ne 6.44301 3.77673 9.98306 -0.04773 -0.051335 0.038972 
Ne 5.21914 6.00731 9.96202 -0.077672 -0.079634 0.071323 
Ne 3.83041 8.15618 9.99271 0.113042 0.060801 0.044267 
Ne 2.4762 10.33996 9.90461 0.118345 0.088158 0.12353 
Ne 1.15834 12.74019 10.03211 0.234029 -0.162765 -0.030668 
Ne 0.01156 14.88472 9.92508 -0.209238 -0.093991 0.05014 
Ne 13.92881 16.91087 10.08642 0.033919 0.088971 -0.092548 
Ne 12.86963 1.51383 10.0258 -0.169964 -0.085001 -0.077296 
Ne 8.95056 3.66649 10.06589 0.075884 0.109279 -0.062514 
Ne 7.77826 6.01068 9.84013 0.021734 -0.020247 0.124236 
Ne 6.44364 8.18212 10.00931 -0.004369 -0.002909 0.044065 
Ne 5.10316 10.37567 10.04817 -0.07074 -0.069244 -0.03216 
Ne 3.75609 12.59114 10.00543 0.016082 0.009299 -0.091325 
Ne 2.55739 14.89387 10.0217 0.054047 -0.143403 -0.045254 
Ne 1.21147 16.9456 9.95468 0.017875 0.217053 0.083975 
Ne 11.53324 3.70831 10.12499 0.011451 0.077251 -0.127166 
Ne 10.37347 5.92559 10.14359 -0.119365 -0.066639 -0.339485 
Ne 9.0968 8.19191 9.9795 -0.119537 -0.012378 0.027042 
Ne 7.6801 10.36071 10.03557 0.080348 -0.119932 -0.003094 
Ne 6.36261 12.54875 10.06464 -0.055928 0.090306 -0.049712 
Ne 5.12563 14.86276 10.08239 -0.031736 -0.177477 -0.00188 
Ne 3.83455 17.04725 10.04233 0.012754 -0.154027 0.007057 
Ne 1.21582 0.7241 12.23412 0.131577 -0.056586 0.202748 
Ne 0.0364 2.90983 12.08315 -0.128824 -0.095585 0.245756 
Ne 14.04014 5.00978 12.15524 -0.07475 0.099182 0.242959 
Ne 13.01526 7.35654 12.19958 -0.188195 -0.263799 0.22969 
Ne 11.58636 9.37498 12.20649 -0.126648 0.137078 0.187784 
Ne 10.1326 11.65673 12.20389 0.096252 0.044412 0.198784 
Ne 8.99999 13.99077 12.09892 -0.110392 -0.101157 0.358514 
Ne 7.67641 16.14655 12.26905 0.00097 0.062732 0.172232 
Ne 6.33157 0.66916 12.24119 0.084852 0.034887 0.14575 
Ne 3.8471 0.6293 12.24802 -0.03991 0.099757 0.243503 
Ne 2.61355 2.86999 12.12862 0.018862 -0.03348 0.281722 
Ne 1.19074 5.02651 12.16927 0.196289 0.095953 0.222428 
Ne 0.15052 7.25273 12.26506 -0.096809 0.100519 0.181105 
Ne 14.07506 9.48915 12.22113 0.140223 0.117272 0.233579 
Ne 12.66128 11.69707 12.22176 0.053416 0.063077 0.217929 
Ne 11.48393 14.02949 12.168 -0.015078 -0.248483 0.310597 
Ne 10.26228 16.19017 12.10134 -0.169272 0.022229 0.284991 
Ne 8.91293 0.65139 12.16715 0.003199 -0.039481 0.175917 
Ne 5.17849 3.02391 12.19158 -0.070226 -0.154029 0.209272 
Ne 3.7434 5.12563 12.21324 0.060066 0.027245 0.197838 
Ne 2.59968 7.36191 12.21044 -0.142618 -0.027525 0.186623 
Ne 1.32797 9.58525 12.2337 -0.114724 -0.143523 0.196473 
Ne 15.33918 11.67011 12.29885 -0.14418 0.20147 0.330064 
Ne 13.99276 13.94263 12.27962 0.049138 -0.04643 0.230616 
Ne 12.77817 16.15467 12.3397 0.061904 0.001539 0.250302 
Ne 11.53176 0.52317 12.26619 -0.005545 0.269933 0.228303 
Ne 7.68372 2.88514 12.25331 -0.039513 0.034283 0.212499 
Ne 6.3424 5.20196 12.13159 0.005984 0.054119 0.226436 
Ne 4.97329 7.43466 12.28458 0.179743 -0.170273 0.1823 
Ne 3.75956 9.66611 12.22541 -0.007719 -0.083259 0.185474 
Ne 2.4458 11.82019 12.15081 0.058872 0.029217 0.190995 
Ne 1.15831 14.03309 12.1945 0.043854 -0.079467 0.250304 
Ne 15.3132 16.15705 12.20859 -0.030088 0.067932 0.217753 
Ne 14.11258 0.62476 12.20852 -0.111736 0.065928 0.291551 
Ne 10.19881 2.81308 12.21328 0.012218 0.028466 0.305705 
Ne 8.85494 5.18237 12.08658 0.022034 -0.096403 0.279818 
Ne 7.63028 7.38239 12.25174 -0.020507 -0.1018 0.156938 
Ne 6.25906 9.4884 12.29792 0.204113 0.177647 0.201049 
Ne 5.03331 11.74082 12.18104 0.061534 0.148808 0.274426 
Ne 3.71309 13.98392 12.18513 0.094118 0.040261 0.246574 
Ne 2.46149 16.23744 12.277 0.089898 -0.008811 0.203222 
Ne 12.77074 2.82013 12.15982 0.060411 -0.042798 0.304683 
Ne 11.45119 4.98005 12.25338 0.117947 0.0942 0.352119 
Ne 10.35178 7.1777 12.17471 -0.011773 0.196024 0.347388 
Ne 9.01729 9.35647 12.29687 -0.027176 0.203584 0.183393 
Ne 7.65158 11.75398 12.1487 -0.039491 -0.091475 0.311733 
Ne 6.38689 13.94326 12.23804 -0.019153 -7.9e-05 0.239639 
Ne 5.13266 16.14235 12.28472 -0.072304 0.03467 0.22336 
144
lattice="15.355313301 0.0 0.0 -0.002790445 17.729177255 0.0 0.0 0.0 20.0" energy=9.50833374 virial="83.81150042400434 -0.24644764073802777 -0.20063801308843296 -0.24644764073802777 81.49322061762447 -1.6030311171061098 -0.20063801308843296 -1.6030311171061098 42.92365509107362" properties=species:S:1:pos:R:3:force:R:3
Ne 0.15394 17.70043 7.82654 -0.138319 -0.147488 -0.254312 
Ne 14.0316 1.96541 7.91328 0.059449 0.237968 -0.288038 
Ne 12.80786 4.32912 7.85288 -0.121172 0.050793 -0.236268 
Ne 11.44712 6.59486 7.77762 0.035782 -0.110919 -0.185473 
Ne 10.23728 8.72581 7.7276 -0.027235 0.168514 -0.227978 
Ne 8.94917 10.93481 7.88729 0.046575 0.021816 -0.230832 
Ne 7.65993 13.20079 7.78348 0.078263 -0.076697 -0.186951 
Ne 6.4454 15.45848 7.7398 -0.09028 -0.095374 -0.190844 
Ne 5.19025 17.60555 7.77944 -0.105368 0.089789 -0.248583 
Ne 2.5814 17.70715 7.76577 0.142723 -0.029453 -0.215159 
Ne 1.29785 2.17547 7.73842 0.073565 -0.003091 -0.211784 
Ne 15.20648 4.18528 7.80697 0.121577 0.218579 -0.193023 
Ne 13.92907 6.67703 7.79861 0.172123 -0.140381 -0.181072 
Ne 12.84591 8.90344 7.92103 -0.096604 -0.022587 -0.303318 
Ne 11.49219 11.09571 7.81809 -0.092343 -0.143447 -0.207879 
Ne 10.24153 13.20452 7.87114 -0.076163 0.069186 -0.282407 
Ne 8.92516 15.4096 7.73169 0.101355 0.049803 -0.22098 
Ne 7.71255 17.65633 7.71377 0.058649 0.069236 -0.169161 
Ne 3.92679 2.18044 7.78649 -0.18789 -0.167604 -0.226986 
Ne 2.47337 4.3824 7.83052 -0.009641 -0.205056 -0.253003 
Ne 1.25033 6.47033 7.77826 -0.205748 0.072353 -0.198555 
Ne 0.07543 8.77492 7.96034 -0.078571 0.070967 -0.275659 
Ne 13.9391 11.15421 7.64813 0.288082 -0.122406 -0.238368 
Ne 12.74808 13.28192 7.82705 -0.020824 0.083222 -0.353852 
Ne 11.53379 15.50572 7.77758 -0.05065 -0.059206 -0.284818 
Ne 10.27457 17.67527 7.72694 -0.108473 -0.004568 -0.175093 
Ne 6.40512 2.12864 7.81335 0.07352 -0.015873 -0.273777 
Ne 5.08587 4.28285 7.64567 0.034645 0.047987 -0.209873 
Ne 3.79591 6.37408 7.8818 0.015242 0.219323 -0.264464 
Ne 2.6265 8.5905 7.94272 -0.172399 0.12708 -0.218531 
Ne 1.2477 11.03036 7.81607 -0.062534 -0.093023 -0.146395 
Ne 0.01717 13.36445 7.62824 0.034668 -0.136766 -0.168261 
Ne 14.11154 15.47515 7.78539 0.048355 0.063334 -0.248955 
Ne 12.8338 17.66362 7.63813 -0.02129 -0.119735 -0.236543 
Ne 8.98537 2.24097 7.72726 -0.066853 -0.215181 -0.258541 
Ne 7.59389 4.3617 7.75772 0.067036 0.025393 -0.188641 
Ne 6.29989 6.49719 7.7838 0.080144 -0.01932 -0.247134 
Ne 5.04547 8.64617 7.78874 0.043943 0.04256 -0.241517 
Ne 3.82108 10.84584 7.7661 -0.036524 0.067966 -0.213721 
Ne 2.58476 13.09442 7.74768 0.029537 0.160398 -0.196248 
Ne 1.36025 15.47727 7.91471 -0.00388 -0.034666 -0.192082 
Ne 11.52064 2.0927 7.7952 0.006193 0.099799 -0.236217 
Ne 10.17566 4.32556 7.76267 0.136216 0.19579 -0.295377 
Ne 8.88123 6.59381 7.85439 0.03293 -0.071562 -0.193254 
Ne 7.55589 8.70847 7.77286 0.209706 0.011568 -0.318859 
Ne 6.43466 10.84409 7.78142 -0.122339 0.162834 -0.296486 
Ne 5.19776 13.10089 7.84917 -0.125959 0.08037 -0.264382 
Ne 3.86714 15.40739 7.80433 0.011707 -0.050404 -0.223569 
Ne 0.04974 1.42392 9.91693 -0.016472 0.041509 0.152533 
Ne 14.06732 3.62069 10.11031 0.037659 0.162092 -0.108227 
Ne 12.79094 5.86463 10.13087 -0.010005 -0.018203 -0.206493 
Ne 11.4001 8.06083 9.96825 0.142823 0.039174 0.015869 
Ne 10.36113 10.34187 10.08422 -0.083722 0.029816 -0.056461 
Ne 9.06586 12.54501 10.04919 -0.200132 0.010624 -0.022148 
Ne 7.65949 14.74666 9.97562 0.046332 0.050932 -0.040873 
Ne 6.3816 17.0472 9.99331 0.203094 0.007944 -0.006893 
Ne 5.21687 1.56107 9.991 -0.096769 -0.091334 0.04832 
Ne 2.55735 1.31774 10.04834 -0.002915 0.268864 -0.125113 
Ne 1.23592 3.70377 10.00302 -0.013591 -0.03938 -0.012315 
Ne 15.28094 5.99166 10.09067 0.02461 -0.12951 -0.130248 
Ne 13.96879 8.15303 10.05805 0.095977 -0.030196 -0.078395 
Ne 12.83513 10.38904 9.96355 -0.074376 0.024502 0.068913 
Ne 11.50965 12.61318 10.10478 0.109064 -0.069344 -0.093584 
Ne 10.20939 14.7916 9.89688 0.025139 0.055463 0.075021 
Ne 8.97236 17.0369 10.01279 -0.036522 0.030873 -0.035069 
Ne 7.74248 1.65392 9.91972 0.00448 -0.297006 0.088459 
Ne 3.77185 3.59102 9.91497 0.069497 0.108608 0.018938 
Ne 2.48859 5.90884 10.0428 -0.007355 0.063106 -0.053499 
Ne 1.22696 8.17802 10.08621 -0.058126 -0.070252 -0.096653 
Ne 15.3031 10.41202 10.08349 0.055619 -0.028604 -0.196601 
Ne 14.02638 12.60957 9.83532 0.171109 -0.05042 0.078316 
Ne 12.83563 14.74676 9.85951 -0.026988 0.115442 0.153429 
Ne 11.56529 16.99054 9.92964 -0.079916 0.088827 -0.031014 
Ne 10.27525 1.5709 10.01776 -0.047211 -0.217566 -0.043879 
Ne 6.4488 3.73016 10.04689 -0.029208 0.092186 -0.060975 
Ne 5.05341 5.80755 9.93564 0.050543 0.065594 0.126059 
Ne 3.90191 8.25611 10.12346 -0.021297 -0.211605 -0.109617 
Ne 2.48466 10.29644 10.16182 0.026077 0.197316 -0.229939 
Ne 1.26849 12.59822 10.08352 -0.018164 -0.052076 -0.153106 
Ne 0.10572 14.80731 10.10058 -0.189847 -0.076903 -0.069853 
Ne 14.05628 16.99733 9.88989 0.072229 0.03701 0.000546 
Ne 12.77475 1.57229 10.04846 -0.00787 -0.253041 -0.037064 
Ne 9.05197 3.69662 9.91231 -0.203549 0.123891 0.074712 
Ne 7.73141 5.91891 10.06171 -0.044532 -0.028726 -0.050392 
Ne 6.46936 8.03252 9.86377 -0.174551 0.086807 0.243026 
Ne 5.07999 10.40845 9.94869 -0.000173 -0.124397 0.031345 
Ne 3.83324 12.55836 9.95451 -0.051385 -0.039956 0.076536 
Ne 2.63605 14.74102 10.07155 -0.090758 0.101427 -0.072703 
Ne 1.26267 16.93607 10.18408 0.042227 0.035354 -0.132409 
Ne 11.50378 3.72761 9.92663 0.099292 0.012514 0.064788 
Ne 10.22044 5.85323 10.06688 0.038642 0.127093 -0.035769 
Ne 8.93954 8.26681 10.0115 -0.025315 -0.092886 -0.024882 
Ne 7.61664 10.41658 9.96767 0.131543 -0.11734 0.07809 
Ne 6.35909 12.48334 10.00898 0.102028 0.208831 0.040792 
Ne 5.10459 14.85535 10.02308 0.119209 -0.06795 -0.166595 
Ne 3.87257 17.0788 9.95153 -0.028586 -0.148493 -0.007734 
Ne 1.32764 0.86418 12.22452 -0.103871 -0.083604 0.288068 
Ne 15.29358 2.91227 12.16898 0.111181 -0.043464 0.266987 
Ne 14.04072 5.04679 12.31895 0.041578 0.115097 0.251817 
Ne 12.7986 7.34921 12.09431 -0.062927 0.083366 0.371507 
Ne 11.6026 9.59585 12.28794 -0.130831 -0.011169 0.204233 
Ne 10.32891 11.96134 12.25106 -0.05019 -0.098658 0.300319 
Ne 8.9707 14.24609 12.2709 0.032395 -0.138257 0.187863 
Ne 7.7807 16.40382 12.30157 -0.147362 -0.034877 0.177072 
Ne 6.44514 0.87 12.213 0.014784 0.01842 0.183217 
Ne 3.92182 0.95739 12.23842 0.027498 -0.11792 0.238687 
Ne 2.63716 2.98657 12.07475 -0.123662 0.158832 0.271689 
Ne 1.17885 5.14412 12.24467 0.058148 -0.015418 0.23711 
Ne 15.32612 7.35311 12.25082 -0.094993 0.050546 0.289396 
Ne 14.06794 9.59703 12.12609 0.01352 -0.040848 0.326807 
Ne 12.80663 11.82701 12.27356 -0.140551 -0.057439 0.208154 
Ne 11.52573 14.0918 12.13606 0.079347 0.030093 0.245444 
Ne 10.36605 16.23113 12.121 -0.081256 0.171491 0.211944 
Ne 8.96551 0.83964 12.25182 0.006134 -0.018373 0.176506 
Ne 5.20362 3.15855 12.19044 -0.063562 -0.000376 0.235721 
Ne 3.65884 5.32526 12.15982 0.171546 -0.130353 0.264996 
Ne 2.4101 7.53168 12.09645 0.177921 -0.069898 0.364932 
Ne 1.22664 9.69819 12.24879 -0.047995 0.028223 0.344664 
Ne 15.1843 11.86473 12.13166 0.297502 -0.080324 0.264068 
Ne 14.0412 13.94099 12.13923 0.005944 0.299879 0.19781 
Ne 12.87652 16.26048 12.02329 -0.079089 -0.071092 0.250955 
Ne 11.39829 0.75565 12.19059 0.140587 -0.024491 0.236283 
Ne 7.77447 3.03549 12.25874 -0.132587 0.066236 0.191227 
Ne 6.42244 5.33569 12.18597 -0.099081 -0.063658 0.235139 
Ne 4.98519 7.42203 12.16789 0.168756 0.128619 0.264988 
Ne 3.79968 9.81967 12.20075 0.099816 -0.095819 0.336558 
Ne 2.46801 11.96659 12.26043 0.147914 -0.087072 0.237412 
Ne 1.29134 14.03795 12.26961 -0.033763 0.213044 0.276039 
Ne 15.33336 16.29258 12.28822 0.073466 -0.052733 0.274547 
Ne 14.01108 0.70528 12.1596 0.092684 0.038843 0.208341 
Ne 10.21662 3.10994 12.13566 0.104023 -0.084023 0.239118 
Ne 8.96369 5.26723 12.26612 0.022343 -0.067952 0.245365 
Ne 7.71528 7.44323 12.26142 -0.203115 0.221906 0.194329 
Ne 6.3912 9.81247 12.12758 0.012572 -0.169646 0.211707 
Ne 5.16097 12.00348 12.29898 -0.049396 -0.045757 0.213112 
Ne 3.9442 14.21537 12.1166 -0.128411 -0.083553 0.365843 
Ne 2.60264 16.43817 12.25636 -0.020472 -0.115958 0.263326 
Ne 12.74606 2.86626 12.19949 -0.054794 0.092242 0.302277 
Ne 11.60463 5.20159 12.28522 -0.192463 -0.023669 0.25822 
Ne 10.13481 7.44675 12.18401 0.215519 0.063469 0.233737 
Ne 8.98171 9.81525 12.16495 -0.007939 -0.14773 0.250491 
Ne 7.84436 12.02201 12.22903 -0.191341 -0.05477 0.233156 
Ne 6.45521 14.13731 12.06766 -0.009345 0.097634 0.30156 
Ne 5.10078 16.4705 12.11052 0.125032 -0.101476 0.293291 
144
lattice="15.355313301 0.0 0.0 -0.002790445 17.729177255 0.0 0.0 0.0 20.0" energy=9.34997603 virial="83.11718551116392 -0.20386643640201718 -0.03969261505543525 -0.20386643640201718 81.22628098469602 -1.548283854388382 -0.03969261505543525 -1.548283854388382 42.6391120552353" properties=species:S:1:pos:R:3:force:R:3
Ne 0.16861 17.60539 7.81878 -0.090667 0.098824 -0.233065 
Ne 14.17208 2.1606 7.799 -0.115615 -0.041734 -0.260903 
Ne 12.72835 4.36987 7.79752 0.065615 -0.015777 -0.265213 
Ne 11.50763 6.54051 7.83693 -0.026855 0.053215 -0.260372 
Ne 10.22806 8.73244 7.79874 0.008925 0.024843 -0.219361 
Ne 8.96668 10.97368 7.76298 -0.083974 -0.039811 -0.202983 
Ne 7.74392 13.24939 7.79614 -0.153923 -0.035791 -0.228108 
Ne 6.44521 15.32769 7.79803 0.003994 0.136207 -0.209607 
Ne 5.09785 17.53863 7.75963 0.195389 0.27016 -0.19511 
Ne 2.71233 0.01482 7.81077 -0.225642 0.108416 -0.207246 
Ne 1.27823 2.28202 7.78727 0.104946 -0.0789 -0.203865 
Ne 15.34001 4.45097 7.8501 0.02508 -0.092898 -0.216861 
Ne 14.10424 6.5596 7.76089 -0.055171 0.057323 -0.195629 
Ne 12.80566 8.72422 7.72953 0.028759 -0.059614 -0.20485 
Ne 11.51308 10.83607 7.78226 -0.008288 0.20978 -0.23982 
Ne 10.15347 13.14492 7.85298 0.235229 0.115249 -0.287837 
Ne 9.05499 15.56561 7.80043 -0.075631 -0.097505 -0.247932 
Ne 7.55703 17.71051 7.67985 0.171863 -0.092552 -0.168236 
Ne 3.8436 2.37636 7.78512 -0.027671 -0.193872 -0.265207 
Ne 2.58208 4.53239 7.80137 -0.073593 -0.080079 -0.191615 
Ne 1.27256 6.60029 7.91054 0.015177 0.049493 -0.160011 
Ne 0.0673 8.76671 7.71116 -0.108228 0.008249 -0.169995 
Ne 14.08822 10.87508 7.94236 -0.028971 0.187513 -0.324007 
Ne 12.83176 13.16845 7.7371 -0.010627 -0.051934 -0.22949 
Ne 11.59674 15.39944 7.65602 -0.031805 0.018965 -0.169578 
Ne 10.25045 0.05449 7.75282 0.077315 -0.136922 -0.235772 
Ne 6.34642 2.12586 7.79554 -0.053545 0.024998 -0.218851 
Ne 5.08976 4.54532 7.78731 0.071485 -0.054988 -0.261177 
Ne 3.84367 6.71037 7.77765 -0.003074 -0.039056 -0.219313 
Ne 2.51715 8.82179 7.75699 0.062575 0.01513 -0.215167 
Ne 1.26234 11.04886 7.87547 0.031571 0.016877 -0.292499 
Ne 0.02698 13.21549 7.79635 -0.095704 -0.126801 -0.215181 
Ne 14.16873 15.35263 7.77217 -0.142975 0.131417 -0.203455 
Ne 12.93134 17.60022 7.81778 -0.068806 0.071175 -0.278555 
Ne 8.97398 2.14634 7.83115 -0.075279 0.020727 -0.206506 
Ne 7.61092 4.28749 7.81761 0.070984 0.149543 -0.318329 
Ne 6.43215 6.70642 7.78945 -0.103325 -0.191134 -0.292188 
Ne 5.12313 8.84215 7.79852 -0.042883 0.040605 -0.267451 
Ne 3.81399 10.98604 7.85331 -0.063992 0.105265 -0.273166 
Ne 2.50561 13.34497 7.84385 0.132454 -0.210394 -0.252152 
Ne 1.29982 15.38654 7.77256 0.022618 0.200948 -0.250492 
Ne 11.56275 2.18523 7.87315 0.031986 -0.041224 -0.265905 
Ne 10.15914 4.37289 7.87994 0.038158 -0.011541 -0.230033 
Ne 8.93237 6.60589 7.84329 0.072748 -0.100524 -0.316751 
Ne 7.68075 8.76003 7.76279 0.04318 0.221498 -0.205928 
Ne 6.34698 11.05709 7.90216 0.102743 0.001435 -0.380112 
Ne 5.01282 13.22976 7.77143 0.07313 0.023326 -0.25476 
Ne 3.85676 15.54362 7.75602 -0.070532 -0.266468 -0.212408 
Ne 0.00176 1.41555 9.98877 0.003364 0.074255 0.0107 
Ne 14.00312 3.66873 9.92363 0.104084 -0.049312 0.037217 
Ne 12.78426 5.9031 9.94054 -0.077193 -0.010567 0.021135 
Ne 11.48777 8.1519 10.03642 0.055296 -0.064535 -0.070629 
Ne 10.11973 10.42724 10.06765 0.088746 0.019427 -0.091432 
Ne 8.90516 12.65385 10.00574 0.016419 -0.076417 0.032526 
Ne 7.68303 14.82748 10.05319 -0.031211 -0.072152 -0.057467 
Ne 6.43502 17.04475 10.03917 -0.083144 0.00277 -0.113623 
Ne 4.94397 1.49788 9.96847 0.296788 -0.084681 -0.076398 
Ne 2.50066 1.45368 10.03868 -0.034529 -0.040362 -0.135235 
Ne 1.31344 3.66961 10.0798 -0.044006 -0.003948 -0.12735 
Ne 0.00561 5.82074 10.12025 0.026619 0.126326 -0.209682 
Ne 14.04144 8.08672 10.02345 0.148083 0.041484 -0.167391 
Ne 12.74406 10.28617 9.95866 0.035513 0.049483 0.088999 
Ne 11.6139 12.56132 9.84126 -0.136262 -0.069766 0.125592 
Ne 10.30375 14.80914 9.96581 -0.041113 -0.099405 -0.009196 
Ne 9.00262 16.95005 9.94288 -0.048712 0.162385 0.005662 
Ne 7.62318 1.52793 10.03946 -0.001309 -0.105552 -0.093278 
Ne 3.84608 3.6583 9.99109 -0.035606 0.14768 0.081783 
Ne 2.63149 5.91049 10.0934 -0.07981 -0.117575 -0.036094 
Ne 1.35978 8.0854 10.12272 -0.203745 -0.023859 -0.207487 